PSF EXT CMAP XPLOR

         2 !NTITLE
* GENERATED BY CHARMM-GUI FF-Converter
* DATE:   10/22/24   11:48:16

     42794 !NATOM
         1 MEMB     1        SAPS     N        NH3L    -0.300000       14.0070           0
         2 MEMB     1        SAPS     HN1      HCL      0.330000       1.00800           0
         3 MEMB     1        SAPS     HN2      HCL      0.330000       1.00800           0
         4 MEMB     1        SAPS     HN3      HCL      0.330000       1.00800           0
         5 MEMB     1        SAPS     C12      CTL1     0.210000       12.0110           0
         6 MEMB     1        SAPS     H12A     HBL      0.100000       1.00800           0
         7 MEMB     1        SAPS     C13      CCL      0.340000       12.0110           0
         8 MEMB     1        SAPS     O13A     OCL     -0.670000       15.9994           0
         9 MEMB     1        SAPS     O13B     OCL     -0.670000       15.9994           0
        10 MEMB     1        SAPS     C11      CTL2    -0.800000E-01   12.0110           0
        11 MEMB     1        SAPS     H11A     HAL2     0.900000E-01   1.00800           0
        12 MEMB     1        SAPS     H11B     HAL2     0.900000E-01   1.00800           0
        13 MEMB     1        SAPS     P        PL       1.500000       30.9740           0
        14 MEMB     1        SAPS     O13      O2L     -0.780000       15.9994           0
        15 MEMB     1        SAPS     O14      O2L     -0.780000       15.9994           0
        16 MEMB     1        SAPS     O12      OSLP    -0.570000       15.9994           0
        17 MEMB     1        SAPS     O11      OSLP    -0.570000       15.9994           0
        18 MEMB     1        SAPS     C1       CTL2    -0.800000E-01   12.0110           0
        19 MEMB     1        SAPS     HA       HAL2     0.900000E-01   1.00800           0
        20 MEMB     1        SAPS     HB       HAL2     0.900000E-01   1.00800           0
        21 MEMB     1        SAPS     C2       CTL1     0.170000       12.0110           0
        22 MEMB     1        SAPS     HS       HAL1     0.900000E-01   1.00800           0
        23 MEMB     1        SAPS     O21      OSL     -0.490000       15.9994           0
        24 MEMB     1        SAPS     C21      CL       0.900000       12.0110           0
        25 MEMB     1        SAPS     O22      OBL     -0.630000       15.9994           0
        26 MEMB     1        SAPS     C22      CTL2    -0.220000       12.0110           0
        27 MEMB     1        SAPS     H2R      HAL2     0.900000E-01   1.00800           0
        28 MEMB     1        SAPS     H2S      HAL2     0.900000E-01   1.00800           0
        29 MEMB     1        SAPS     C3       CTL2     0.800000E-01   12.0110           0
        30 MEMB     1        SAPS     HX       HAL2     0.900000E-01   1.00800           0
        31 MEMB     1        SAPS     HY       HAL2     0.900000E-01   1.00800           0
        32 MEMB     1        SAPS     O31      OSL     -0.490000       15.9994           0
        33 MEMB     1        SAPS     C31      CL       0.900000       12.0110           0
        34 MEMB     1        SAPS     O32      OBL     -0.630000       15.9994           0
        35 MEMB     1        SAPS     C32      CTL2    -0.220000       12.0110           0
        36 MEMB     1        SAPS     H2X      HAL2     0.900000E-01   1.00800           0
        37 MEMB     1        SAPS     H2Y      HAL2     0.900000E-01   1.00800           0
        38 MEMB     1        SAPS     C23      CTL2    -0.180000       12.0110           0
        39 MEMB     1        SAPS     H3R      HAL2     0.900000E-01   1.00800           0
        40 MEMB     1        SAPS     H3S      HAL2     0.900000E-01   1.00800           0
        41 MEMB     1        SAPS     C24      CTL2    -0.180000       12.0110           0
        42 MEMB     1        SAPS     H4R      HAL2     0.900000E-01   1.00800           0
        43 MEMB     1        SAPS     H4S      HAL2     0.900000E-01   1.00800           0
        44 MEMB     1        SAPS     C25      CEL1    -0.150000       12.0110           0
        45 MEMB     1        SAPS     H5R      HEL1     0.150000       1.00800           0
        46 MEMB     1        SAPS     C26      CEL1    -0.150000       12.0110           0
        47 MEMB     1        SAPS     H6R      HEL1     0.150000       1.00800           0
        48 MEMB     1        SAPS     C27      CTL2    -0.180000       12.0110           0
        49 MEMB     1        SAPS     H7R      HAL2     0.900000E-01   1.00800           0
        50 MEMB     1        SAPS     H7S      HAL2     0.900000E-01   1.00800           0
        51 MEMB     1        SAPS     C28      CEL1    -0.150000       12.0110           0
        52 MEMB     1        SAPS     H8R      HEL1     0.150000       1.00800           0
        53 MEMB     1        SAPS     C29      CEL1    -0.150000       12.0110           0
        54 MEMB     1        SAPS     H9R      HEL1     0.150000       1.00800           0
        55 MEMB     1        SAPS     C210     CTL2    -0.180000       12.0110           0
        56 MEMB     1        SAPS     H10R     HAL2     0.900000E-01   1.00800           0
        57 MEMB     1        SAPS     H10S     HAL2     0.900000E-01   1.00800           0
        58 MEMB     1        SAPS     C211     CEL1    -0.150000       12.0110           0
        59 MEMB     1        SAPS     H11R     HEL1     0.150000       1.00800           0
        60 MEMB     1        SAPS     C212     CEL1    -0.150000       12.0110           0
        61 MEMB     1        SAPS     H12R     HEL1     0.150000       1.00800           0
        62 MEMB     1        SAPS     C213     CTL2    -0.180000       12.0110           0
        63 MEMB     1        SAPS     H13R     HAL2     0.900000E-01   1.00800           0
        64 MEMB     1        SAPS     H13S     HAL2     0.900000E-01   1.00800           0
        65 MEMB     1        SAPS     C214     CEL1    -0.150000       12.0110           0
        66 MEMB     1        SAPS     H14R     HEL1     0.150000       1.00800           0
        67 MEMB     1        SAPS     C215     CEL1    -0.150000       12.0110           0
        68 MEMB     1        SAPS     H15R     HEL1     0.150000       1.00800           0
        69 MEMB     1        SAPS     C216     CTL2    -0.180000       12.0110           0
        70 MEMB     1        SAPS     H16R     HAL2     0.900000E-01   1.00800           0
        71 MEMB     1        SAPS     H16S     HAL2     0.900000E-01   1.00800           0
        72 MEMB     1        SAPS     C217     CTL2    -0.180000       12.0110           0
        73 MEMB     1        SAPS     H17R     HAL2     0.900000E-01   1.00800           0
        74 MEMB     1        SAPS     H17S     HAL2     0.900000E-01   1.00800           0
        75 MEMB     1        SAPS     C218     CTL2    -0.180000       12.0110           0
        76 MEMB     1        SAPS     H18R     HAL2     0.900000E-01   1.00800           0
        77 MEMB     1        SAPS     H18S     HAL2     0.900000E-01   1.00800           0
        78 MEMB     1        SAPS     C219     CTL2    -0.180000       12.0110           0
        79 MEMB     1        SAPS     H19R     HAL2     0.900000E-01   1.00800           0
        80 MEMB     1        SAPS     H19S     HAL2     0.900000E-01   1.00800           0
        81 MEMB     1        SAPS     C220     CTL3    -0.270000       12.0110           0
        82 MEMB     1        SAPS     H20R     HAL3     0.900000E-01   1.00800           0
        83 MEMB     1        SAPS     H20S     HAL3     0.900000E-01   1.00800           0
        84 MEMB     1        SAPS     H20T     HAL3     0.900000E-01   1.00800           0
        85 MEMB     1        SAPS     C33      CTL2    -0.180000       12.0110           0
        86 MEMB     1        SAPS     H3X      HAL2     0.900000E-01   1.00800           0
        87 MEMB     1        SAPS     H3Y      HAL2     0.900000E-01   1.00800           0
        88 MEMB     1        SAPS     C34      CTL2    -0.180000       12.0110           0
        89 MEMB     1        SAPS     H4X      HAL2     0.900000E-01   1.00800           0
        90 MEMB     1        SAPS     H4Y      HAL2     0.900000E-01   1.00800           0
        91 MEMB     1        SAPS     C35      CTL2    -0.180000       12.0110           0
        92 MEMB     1        SAPS     H5X      HAL2     0.900000E-01   1.00800           0
        93 MEMB     1        SAPS     H5Y      HAL2     0.900000E-01   1.00800           0
        94 MEMB     1        SAPS     C36      CTL2    -0.180000       12.0110           0
        95 MEMB     1        SAPS     H6X      HAL2     0.900000E-01   1.00800           0
        96 MEMB     1        SAPS     H6Y      HAL2     0.900000E-01   1.00800           0
        97 MEMB     1        SAPS     C37      CTL2    -0.180000       12.0110           0
        98 MEMB     1        SAPS     H7X      HAL2     0.900000E-01   1.00800           0
        99 MEMB     1        SAPS     H7Y      HAL2     0.900000E-01   1.00800           0
       100 MEMB     1        SAPS     C38      CTL2    -0.180000       12.0110           0
       101 MEMB     1        SAPS     H8X      HAL2     0.900000E-01   1.00800           0
       102 MEMB     1        SAPS     H8Y      HAL2     0.900000E-01   1.00800           0
       103 MEMB     1        SAPS     C39      CTL2    -0.180000       12.0110           0
       104 MEMB     1        SAPS     H9X      HAL2     0.900000E-01   1.00800           0
       105 MEMB     1        SAPS     H9Y      HAL2     0.900000E-01   1.00800           0
       106 MEMB     1        SAPS     C310     CTL2    -0.180000       12.0110           0
       107 MEMB     1        SAPS     H10X     HAL2     0.900000E-01   1.00800           0
       108 MEMB     1        SAPS     H10Y     HAL2     0.900000E-01   1.00800           0
       109 MEMB     1        SAPS     C311     CTL2    -0.180000       12.0110           0
       110 MEMB     1        SAPS     H11X     HAL2     0.900000E-01   1.00800           0
       111 MEMB     1        SAPS     H11Y     HAL2     0.900000E-01   1.00800           0
       112 MEMB     1        SAPS     C312     CTL2    -0.180000       12.0110           0
       113 MEMB     1        SAPS     H12X     HAL2     0.900000E-01   1.00800           0
       114 MEMB     1        SAPS     H12Y     HAL2     0.900000E-01   1.00800           0
       115 MEMB     1        SAPS     C313     CTL2    -0.180000       12.0110           0
       116 MEMB     1        SAPS     H13X     HAL2     0.900000E-01   1.00800           0
       117 MEMB     1        SAPS     H13Y     HAL2     0.900000E-01   1.00800           0
       118 MEMB     1        SAPS     C314     CTL2    -0.180000       12.0110           0
       119 MEMB     1        SAPS     H14X     HAL2     0.900000E-01   1.00800           0
       120 MEMB     1        SAPS     H14Y     HAL2     0.900000E-01   1.00800           0
       121 MEMB     1        SAPS     C315     CTL2    -0.180000       12.0110           0
       122 MEMB     1        SAPS     H15X     HAL2     0.900000E-01   1.00800           0
       123 MEMB     1        SAPS     H15Y     HAL2     0.900000E-01   1.00800           0
       124 MEMB     1        SAPS     C316     CTL2    -0.180000       12.0110           0
       125 MEMB     1        SAPS     H16X     HAL2     0.900000E-01   1.00800           0
       126 MEMB     1        SAPS     H16Y     HAL2     0.900000E-01   1.00800           0
       127 MEMB     1        SAPS     C317     CTL2    -0.180000       12.0110           0
       128 MEMB     1        SAPS     H17X     HAL2     0.900000E-01   1.00800           0
       129 MEMB     1        SAPS     H17Y     HAL2     0.900000E-01   1.00800           0
       130 MEMB     1        SAPS     C318     CTL3    -0.270000       12.0110           0
       131 MEMB     1        SAPS     H18X     HAL3     0.900000E-01   1.00800           0
       132 MEMB     1        SAPS     H18Y     HAL3     0.900000E-01   1.00800           0
       133 MEMB     1        SAPS     H18Z     HAL3     0.900000E-01   1.00800           0
       134 MEMB     24       SAPS     N        NH3L    -0.300000       14.0070           0
       135 MEMB     24       SAPS     HN1      HCL      0.330000       1.00800           0
       136 MEMB     24       SAPS     HN2      HCL      0.330000       1.00800           0
       137 MEMB     24       SAPS     HN3      HCL      0.330000       1.00800           0
       138 MEMB     24       SAPS     C12      CTL1     0.210000       12.0110           0
       139 MEMB     24       SAPS     H12A     HBL      0.100000       1.00800           0
       140 MEMB     24       SAPS     C13      CCL      0.340000       12.0110           0
       141 MEMB     24       SAPS     O13A     OCL     -0.670000       15.9994           0
       142 MEMB     24       SAPS     O13B     OCL     -0.670000       15.9994           0
       143 MEMB     24       SAPS     C11      CTL2    -0.800000E-01   12.0110           0
       144 MEMB     24       SAPS     H11A     HAL2     0.900000E-01   1.00800           0
       145 MEMB     24       SAPS     H11B     HAL2     0.900000E-01   1.00800           0
       146 MEMB     24       SAPS     P        PL       1.500000       30.9740           0
       147 MEMB     24       SAPS     O13      O2L     -0.780000       15.9994           0
       148 MEMB     24       SAPS     O14      O2L     -0.780000       15.9994           0
       149 MEMB     24       SAPS     O12      OSLP    -0.570000       15.9994           0
       150 MEMB     24       SAPS     O11      OSLP    -0.570000       15.9994           0
       151 MEMB     24       SAPS     C1       CTL2    -0.800000E-01   12.0110           0
       152 MEMB     24       SAPS     HA       HAL2     0.900000E-01   1.00800           0
       153 MEMB     24       SAPS     HB       HAL2     0.900000E-01   1.00800           0
       154 MEMB     24       SAPS     C2       CTL1     0.170000       12.0110           0
       155 MEMB     24       SAPS     HS       HAL1     0.900000E-01   1.00800           0
       156 MEMB     24       SAPS     O21      OSL     -0.490000       15.9994           0
       157 MEMB     24       SAPS     C21      CL       0.900000       12.0110           0
       158 MEMB     24       SAPS     O22      OBL     -0.630000       15.9994           0
       159 MEMB     24       SAPS     C22      CTL2    -0.220000       12.0110           0
       160 MEMB     24       SAPS     H2R      HAL2     0.900000E-01   1.00800           0
       161 MEMB     24       SAPS     H2S      HAL2     0.900000E-01   1.00800           0
       162 MEMB     24       SAPS     C3       CTL2     0.800000E-01   12.0110           0
       163 MEMB     24       SAPS     HX       HAL2     0.900000E-01   1.00800           0
       164 MEMB     24       SAPS     HY       HAL2     0.900000E-01   1.00800           0
       165 MEMB     24       SAPS     O31      OSL     -0.490000       15.9994           0
       166 MEMB     24       SAPS     C31      CL       0.900000       12.0110           0
       167 MEMB     24       SAPS     O32      OBL     -0.630000       15.9994           0
       168 MEMB     24       SAPS     C32      CTL2    -0.220000       12.0110           0
       169 MEMB     24       SAPS     H2X      HAL2     0.900000E-01   1.00800           0
       170 MEMB     24       SAPS     H2Y      HAL2     0.900000E-01   1.00800           0
       171 MEMB     24       SAPS     C23      CTL2    -0.180000       12.0110           0
       172 MEMB     24       SAPS     H3R      HAL2     0.900000E-01   1.00800           0
       173 MEMB     24       SAPS     H3S      HAL2     0.900000E-01   1.00800           0
       174 MEMB     24       SAPS     C24      CTL2    -0.180000       12.0110           0
       175 MEMB     24       SAPS     H4R      HAL2     0.900000E-01   1.00800           0
       176 MEMB     24       SAPS     H4S      HAL2     0.900000E-01   1.00800           0
       177 MEMB     24       SAPS     C25      CEL1    -0.150000       12.0110           0
       178 MEMB     24       SAPS     H5R      HEL1     0.150000       1.00800           0
       179 MEMB     24       SAPS     C26      CEL1    -0.150000       12.0110           0
       180 MEMB     24       SAPS     H6R      HEL1     0.150000       1.00800           0
       181 MEMB     24       SAPS     C27      CTL2    -0.180000       12.0110           0
       182 MEMB     24       SAPS     H7R      HAL2     0.900000E-01   1.00800           0
       183 MEMB     24       SAPS     H7S      HAL2     0.900000E-01   1.00800           0
       184 MEMB     24       SAPS     C28      CEL1    -0.150000       12.0110           0
       185 MEMB     24       SAPS     H8R      HEL1     0.150000       1.00800           0
       186 MEMB     24       SAPS     C29      CEL1    -0.150000       12.0110           0
       187 MEMB     24       SAPS     H9R      HEL1     0.150000       1.00800           0
       188 MEMB     24       SAPS     C210     CTL2    -0.180000       12.0110           0
       189 MEMB     24       SAPS     H10R     HAL2     0.900000E-01   1.00800           0
       190 MEMB     24       SAPS     H10S     HAL2     0.900000E-01   1.00800           0
       191 MEMB     24       SAPS     C211     CEL1    -0.150000       12.0110           0
       192 MEMB     24       SAPS     H11R     HEL1     0.150000       1.00800           0
       193 MEMB     24       SAPS     C212     CEL1    -0.150000       12.0110           0
       194 MEMB     24       SAPS     H12R     HEL1     0.150000       1.00800           0
       195 MEMB     24       SAPS     C213     CTL2    -0.180000       12.0110           0
       196 MEMB     24       SAPS     H13R     HAL2     0.900000E-01   1.00800           0
       197 MEMB     24       SAPS     H13S     HAL2     0.900000E-01   1.00800           0
       198 MEMB     24       SAPS     C214     CEL1    -0.150000       12.0110           0
       199 MEMB     24       SAPS     H14R     HEL1     0.150000       1.00800           0
       200 MEMB     24       SAPS     C215     CEL1    -0.150000       12.0110           0
       201 MEMB     24       SAPS     H15R     HEL1     0.150000       1.00800           0
       202 MEMB     24       SAPS     C216     CTL2    -0.180000       12.0110           0
       203 MEMB     24       SAPS     H16R     HAL2     0.900000E-01   1.00800           0
       204 MEMB     24       SAPS     H16S     HAL2     0.900000E-01   1.00800           0
       205 MEMB     24       SAPS     C217     CTL2    -0.180000       12.0110           0
       206 MEMB     24       SAPS     H17R     HAL2     0.900000E-01   1.00800           0
       207 MEMB     24       SAPS     H17S     HAL2     0.900000E-01   1.00800           0
       208 MEMB     24       SAPS     C218     CTL2    -0.180000       12.0110           0
       209 MEMB     24       SAPS     H18R     HAL2     0.900000E-01   1.00800           0
       210 MEMB     24       SAPS     H18S     HAL2     0.900000E-01   1.00800           0
       211 MEMB     24       SAPS     C219     CTL2    -0.180000       12.0110           0
       212 MEMB     24       SAPS     H19R     HAL2     0.900000E-01   1.00800           0
       213 MEMB     24       SAPS     H19S     HAL2     0.900000E-01   1.00800           0
       214 MEMB     24       SAPS     C220     CTL3    -0.270000       12.0110           0
       215 MEMB     24       SAPS     H20R     HAL3     0.900000E-01   1.00800           0
       216 MEMB     24       SAPS     H20S     HAL3     0.900000E-01   1.00800           0
       217 MEMB     24       SAPS     H20T     HAL3     0.900000E-01   1.00800           0
       218 MEMB     24       SAPS     C33      CTL2    -0.180000       12.0110           0
       219 MEMB     24       SAPS     H3X      HAL2     0.900000E-01   1.00800           0
       220 MEMB     24       SAPS     H3Y      HAL2     0.900000E-01   1.00800           0
       221 MEMB     24       SAPS     C34      CTL2    -0.180000       12.0110           0
       222 MEMB     24       SAPS     H4X      HAL2     0.900000E-01   1.00800           0
       223 MEMB     24       SAPS     H4Y      HAL2     0.900000E-01   1.00800           0
       224 MEMB     24       SAPS     C35      CTL2    -0.180000       12.0110           0
       225 MEMB     24       SAPS     H5X      HAL2     0.900000E-01   1.00800           0
       226 MEMB     24       SAPS     H5Y      HAL2     0.900000E-01   1.00800           0
       227 MEMB     24       SAPS     C36      CTL2    -0.180000       12.0110           0
       228 MEMB     24       SAPS     H6X      HAL2     0.900000E-01   1.00800           0
       229 MEMB     24       SAPS     H6Y      HAL2     0.900000E-01   1.00800           0
       230 MEMB     24       SAPS     C37      CTL2    -0.180000       12.0110           0
       231 MEMB     24       SAPS     H7X      HAL2     0.900000E-01   1.00800           0
       232 MEMB     24       SAPS     H7Y      HAL2     0.900000E-01   1.00800           0
       233 MEMB     24       SAPS     C38      CTL2    -0.180000       12.0110           0
       234 MEMB     24       SAPS     H8X      HAL2     0.900000E-01   1.00800           0
       235 MEMB     24       SAPS     H8Y      HAL2     0.900000E-01   1.00800           0
       236 MEMB     24       SAPS     C39      CTL2    -0.180000       12.0110           0
       237 MEMB     24       SAPS     H9X      HAL2     0.900000E-01   1.00800           0
       238 MEMB     24       SAPS     H9Y      HAL2     0.900000E-01   1.00800           0
       239 MEMB     24       SAPS     C310     CTL2    -0.180000       12.0110           0
       240 MEMB     24       SAPS     H10X     HAL2     0.900000E-01   1.00800           0
       241 MEMB     24       SAPS     H10Y     HAL2     0.900000E-01   1.00800           0
       242 MEMB     24       SAPS     C311     CTL2    -0.180000       12.0110           0
       243 MEMB     24       SAPS     H11X     HAL2     0.900000E-01   1.00800           0
       244 MEMB     24       SAPS     H11Y     HAL2     0.900000E-01   1.00800           0
       245 MEMB     24       SAPS     C312     CTL2    -0.180000       12.0110           0
       246 MEMB     24       SAPS     H12X     HAL2     0.900000E-01   1.00800           0
       247 MEMB     24       SAPS     H12Y     HAL2     0.900000E-01   1.00800           0
       248 MEMB     24       SAPS     C313     CTL2    -0.180000       12.0110           0
       249 MEMB     24       SAPS     H13X     HAL2     0.900000E-01   1.00800           0
       250 MEMB     24       SAPS     H13Y     HAL2     0.900000E-01   1.00800           0
       251 MEMB     24       SAPS     C314     CTL2    -0.180000       12.0110           0
       252 MEMB     24       SAPS     H14X     HAL2     0.900000E-01   1.00800           0
       253 MEMB     24       SAPS     H14Y     HAL2     0.900000E-01   1.00800           0
       254 MEMB     24       SAPS     C315     CTL2    -0.180000       12.0110           0
       255 MEMB     24       SAPS     H15X     HAL2     0.900000E-01   1.00800           0
       256 MEMB     24       SAPS     H15Y     HAL2     0.900000E-01   1.00800           0
       257 MEMB     24       SAPS     C316     CTL2    -0.180000       12.0110           0
       258 MEMB     24       SAPS     H16X     HAL2     0.900000E-01   1.00800           0
       259 MEMB     24       SAPS     H16Y     HAL2     0.900000E-01   1.00800           0
       260 MEMB     24       SAPS     C317     CTL2    -0.180000       12.0110           0
       261 MEMB     24       SAPS     H17X     HAL2     0.900000E-01   1.00800           0
       262 MEMB     24       SAPS     H17Y     HAL2     0.900000E-01   1.00800           0
       263 MEMB     24       SAPS     C318     CTL3    -0.270000       12.0110           0
       264 MEMB     24       SAPS     H18X     HAL3     0.900000E-01   1.00800           0
       265 MEMB     24       SAPS     H18Y     HAL3     0.900000E-01   1.00800           0
       266 MEMB     24       SAPS     H18Z     HAL3     0.900000E-01   1.00800           0
       267 MEMB     25       SAPS     N        NH3L    -0.300000       14.0070           0
       268 MEMB     25       SAPS     HN1      HCL      0.330000       1.00800           0
       269 MEMB     25       SAPS     HN2      HCL      0.330000       1.00800           0
       270 MEMB     25       SAPS     HN3      HCL      0.330000       1.00800           0
       271 MEMB     25       SAPS     C12      CTL1     0.210000       12.0110           0
       272 MEMB     25       SAPS     H12A     HBL      0.100000       1.00800           0
       273 MEMB     25       SAPS     C13      CCL      0.340000       12.0110           0
       274 MEMB     25       SAPS     O13A     OCL     -0.670000       15.9994           0
       275 MEMB     25       SAPS     O13B     OCL     -0.670000       15.9994           0
       276 MEMB     25       SAPS     C11      CTL2    -0.800000E-01   12.0110           0
       277 MEMB     25       SAPS     H11A     HAL2     0.900000E-01   1.00800           0
       278 MEMB     25       SAPS     H11B     HAL2     0.900000E-01   1.00800           0
       279 MEMB     25       SAPS     P        PL       1.500000       30.9740           0
       280 MEMB     25       SAPS     O13      O2L     -0.780000       15.9994           0
       281 MEMB     25       SAPS     O14      O2L     -0.780000       15.9994           0
       282 MEMB     25       SAPS     O12      OSLP    -0.570000       15.9994           0
       283 MEMB     25       SAPS     O11      OSLP    -0.570000       15.9994           0
       284 MEMB     25       SAPS     C1       CTL2    -0.800000E-01   12.0110           0
       285 MEMB     25       SAPS     HA       HAL2     0.900000E-01   1.00800           0
       286 MEMB     25       SAPS     HB       HAL2     0.900000E-01   1.00800           0
       287 MEMB     25       SAPS     C2       CTL1     0.170000       12.0110           0
       288 MEMB     25       SAPS     HS       HAL1     0.900000E-01   1.00800           0
       289 MEMB     25       SAPS     O21      OSL     -0.490000       15.9994           0
       290 MEMB     25       SAPS     C21      CL       0.900000       12.0110           0
       291 MEMB     25       SAPS     O22      OBL     -0.630000       15.9994           0
       292 MEMB     25       SAPS     C22      CTL2    -0.220000       12.0110           0
       293 MEMB     25       SAPS     H2R      HAL2     0.900000E-01   1.00800           0
       294 MEMB     25       SAPS     H2S      HAL2     0.900000E-01   1.00800           0
       295 MEMB     25       SAPS     C3       CTL2     0.800000E-01   12.0110           0
       296 MEMB     25       SAPS     HX       HAL2     0.900000E-01   1.00800           0
       297 MEMB     25       SAPS     HY       HAL2     0.900000E-01   1.00800           0
       298 MEMB     25       SAPS     O31      OSL     -0.490000       15.9994           0
       299 MEMB     25       SAPS     C31      CL       0.900000       12.0110           0
       300 MEMB     25       SAPS     O32      OBL     -0.630000       15.9994           0
       301 MEMB     25       SAPS     C32      CTL2    -0.220000       12.0110           0
       302 MEMB     25       SAPS     H2X      HAL2     0.900000E-01   1.00800           0
       303 MEMB     25       SAPS     H2Y      HAL2     0.900000E-01   1.00800           0
       304 MEMB     25       SAPS     C23      CTL2    -0.180000       12.0110           0
       305 MEMB     25       SAPS     H3R      HAL2     0.900000E-01   1.00800           0
       306 MEMB     25       SAPS     H3S      HAL2     0.900000E-01   1.00800           0
       307 MEMB     25       SAPS     C24      CTL2    -0.180000       12.0110           0
       308 MEMB     25       SAPS     H4R      HAL2     0.900000E-01   1.00800           0
       309 MEMB     25       SAPS     H4S      HAL2     0.900000E-01   1.00800           0
       310 MEMB     25       SAPS     C25      CEL1    -0.150000       12.0110           0
       311 MEMB     25       SAPS     H5R      HEL1     0.150000       1.00800           0
       312 MEMB     25       SAPS     C26      CEL1    -0.150000       12.0110           0
       313 MEMB     25       SAPS     H6R      HEL1     0.150000       1.00800           0
       314 MEMB     25       SAPS     C27      CTL2    -0.180000       12.0110           0
       315 MEMB     25       SAPS     H7R      HAL2     0.900000E-01   1.00800           0
       316 MEMB     25       SAPS     H7S      HAL2     0.900000E-01   1.00800           0
       317 MEMB     25       SAPS     C28      CEL1    -0.150000       12.0110           0
       318 MEMB     25       SAPS     H8R      HEL1     0.150000       1.00800           0
       319 MEMB     25       SAPS     C29      CEL1    -0.150000       12.0110           0
       320 MEMB     25       SAPS     H9R      HEL1     0.150000       1.00800           0
       321 MEMB     25       SAPS     C210     CTL2    -0.180000       12.0110           0
       322 MEMB     25       SAPS     H10R     HAL2     0.900000E-01   1.00800           0
       323 MEMB     25       SAPS     H10S     HAL2     0.900000E-01   1.00800           0
       324 MEMB     25       SAPS     C211     CEL1    -0.150000       12.0110           0
       325 MEMB     25       SAPS     H11R     HEL1     0.150000       1.00800           0
       326 MEMB     25       SAPS     C212     CEL1    -0.150000       12.0110           0
       327 MEMB     25       SAPS     H12R     HEL1     0.150000       1.00800           0
       328 MEMB     25       SAPS     C213     CTL2    -0.180000       12.0110           0
       329 MEMB     25       SAPS     H13R     HAL2     0.900000E-01   1.00800           0
       330 MEMB     25       SAPS     H13S     HAL2     0.900000E-01   1.00800           0
       331 MEMB     25       SAPS     C214     CEL1    -0.150000       12.0110           0
       332 MEMB     25       SAPS     H14R     HEL1     0.150000       1.00800           0
       333 MEMB     25       SAPS     C215     CEL1    -0.150000       12.0110           0
       334 MEMB     25       SAPS     H15R     HEL1     0.150000       1.00800           0
       335 MEMB     25       SAPS     C216     CTL2    -0.180000       12.0110           0
       336 MEMB     25       SAPS     H16R     HAL2     0.900000E-01   1.00800           0
       337 MEMB     25       SAPS     H16S     HAL2     0.900000E-01   1.00800           0
       338 MEMB     25       SAPS     C217     CTL2    -0.180000       12.0110           0
       339 MEMB     25       SAPS     H17R     HAL2     0.900000E-01   1.00800           0
       340 MEMB     25       SAPS     H17S     HAL2     0.900000E-01   1.00800           0
       341 MEMB     25       SAPS     C218     CTL2    -0.180000       12.0110           0
       342 MEMB     25       SAPS     H18R     HAL2     0.900000E-01   1.00800           0
       343 MEMB     25       SAPS     H18S     HAL2     0.900000E-01   1.00800           0
       344 MEMB     25       SAPS     C219     CTL2    -0.180000       12.0110           0
       345 MEMB     25       SAPS     H19R     HAL2     0.900000E-01   1.00800           0
       346 MEMB     25       SAPS     H19S     HAL2     0.900000E-01   1.00800           0
       347 MEMB     25       SAPS     C220     CTL3    -0.270000       12.0110           0
       348 MEMB     25       SAPS     H20R     HAL3     0.900000E-01   1.00800           0
       349 MEMB     25       SAPS     H20S     HAL3     0.900000E-01   1.00800           0
       350 MEMB     25       SAPS     H20T     HAL3     0.900000E-01   1.00800           0
       351 MEMB     25       SAPS     C33      CTL2    -0.180000       12.0110           0
       352 MEMB     25       SAPS     H3X      HAL2     0.900000E-01   1.00800           0
       353 MEMB     25       SAPS     H3Y      HAL2     0.900000E-01   1.00800           0
       354 MEMB     25       SAPS     C34      CTL2    -0.180000       12.0110           0
       355 MEMB     25       SAPS     H4X      HAL2     0.900000E-01   1.00800           0
       356 MEMB     25       SAPS     H4Y      HAL2     0.900000E-01   1.00800           0
       357 MEMB     25       SAPS     C35      CTL2    -0.180000       12.0110           0
       358 MEMB     25       SAPS     H5X      HAL2     0.900000E-01   1.00800           0
       359 MEMB     25       SAPS     H5Y      HAL2     0.900000E-01   1.00800           0
       360 MEMB     25       SAPS     C36      CTL2    -0.180000       12.0110           0
       361 MEMB     25       SAPS     H6X      HAL2     0.900000E-01   1.00800           0
       362 MEMB     25       SAPS     H6Y      HAL2     0.900000E-01   1.00800           0
       363 MEMB     25       SAPS     C37      CTL2    -0.180000       12.0110           0
       364 MEMB     25       SAPS     H7X      HAL2     0.900000E-01   1.00800           0
       365 MEMB     25       SAPS     H7Y      HAL2     0.900000E-01   1.00800           0
       366 MEMB     25       SAPS     C38      CTL2    -0.180000       12.0110           0
       367 MEMB     25       SAPS     H8X      HAL2     0.900000E-01   1.00800           0
       368 MEMB     25       SAPS     H8Y      HAL2     0.900000E-01   1.00800           0
       369 MEMB     25       SAPS     C39      CTL2    -0.180000       12.0110           0
       370 MEMB     25       SAPS     H9X      HAL2     0.900000E-01   1.00800           0
       371 MEMB     25       SAPS     H9Y      HAL2     0.900000E-01   1.00800           0
       372 MEMB     25       SAPS     C310     CTL2    -0.180000       12.0110           0
       373 MEMB     25       SAPS     H10X     HAL2     0.900000E-01   1.00800           0
       374 MEMB     25       SAPS     H10Y     HAL2     0.900000E-01   1.00800           0
       375 MEMB     25       SAPS     C311     CTL2    -0.180000       12.0110           0
       376 MEMB     25       SAPS     H11X     HAL2     0.900000E-01   1.00800           0
       377 MEMB     25       SAPS     H11Y     HAL2     0.900000E-01   1.00800           0
       378 MEMB     25       SAPS     C312     CTL2    -0.180000       12.0110           0
       379 MEMB     25       SAPS     H12X     HAL2     0.900000E-01   1.00800           0
       380 MEMB     25       SAPS     H12Y     HAL2     0.900000E-01   1.00800           0
       381 MEMB     25       SAPS     C313     CTL2    -0.180000       12.0110           0
       382 MEMB     25       SAPS     H13X     HAL2     0.900000E-01   1.00800           0
       383 MEMB     25       SAPS     H13Y     HAL2     0.900000E-01   1.00800           0
       384 MEMB     25       SAPS     C314     CTL2    -0.180000       12.0110           0
       385 MEMB     25       SAPS     H14X     HAL2     0.900000E-01   1.00800           0
       386 MEMB     25       SAPS     H14Y     HAL2     0.900000E-01   1.00800           0
       387 MEMB     25       SAPS     C315     CTL2    -0.180000       12.0110           0
       388 MEMB     25       SAPS     H15X     HAL2     0.900000E-01   1.00800           0
       389 MEMB     25       SAPS     H15Y     HAL2     0.900000E-01   1.00800           0
       390 MEMB     25       SAPS     C316     CTL2    -0.180000       12.0110           0
       391 MEMB     25       SAPS     H16X     HAL2     0.900000E-01   1.00800           0
       392 MEMB     25       SAPS     H16Y     HAL2     0.900000E-01   1.00800           0
       393 MEMB     25       SAPS     C317     CTL2    -0.180000       12.0110           0
       394 MEMB     25       SAPS     H17X     HAL2     0.900000E-01   1.00800           0
       395 MEMB     25       SAPS     H17Y     HAL2     0.900000E-01   1.00800           0
       396 MEMB     25       SAPS     C318     CTL3    -0.270000       12.0110           0
       397 MEMB     25       SAPS     H18X     HAL3     0.900000E-01   1.00800           0
       398 MEMB     25       SAPS     H18Y     HAL3     0.900000E-01   1.00800           0
       399 MEMB     25       SAPS     H18Z     HAL3     0.900000E-01   1.00800           0
       400 MEMB     26       SAPS     N        NH3L    -0.300000       14.0070           0
       401 MEMB     26       SAPS     HN1      HCL      0.330000       1.00800           0
       402 MEMB     26       SAPS     HN2      HCL      0.330000       1.00800           0
       403 MEMB     26       SAPS     HN3      HCL      0.330000       1.00800           0
       404 MEMB     26       SAPS     C12      CTL1     0.210000       12.0110           0
       405 MEMB     26       SAPS     H12A     HBL      0.100000       1.00800           0
       406 MEMB     26       SAPS     C13      CCL      0.340000       12.0110           0
       407 MEMB     26       SAPS     O13A     OCL     -0.670000       15.9994           0
       408 MEMB     26       SAPS     O13B     OCL     -0.670000       15.9994           0
       409 MEMB     26       SAPS     C11      CTL2    -0.800000E-01   12.0110           0
       410 MEMB     26       SAPS     H11A     HAL2     0.900000E-01   1.00800           0
       411 MEMB     26       SAPS     H11B     HAL2     0.900000E-01   1.00800           0
       412 MEMB     26       SAPS     P        PL       1.500000       30.9740           0
       413 MEMB     26       SAPS     O13      O2L     -0.780000       15.9994           0
       414 MEMB     26       SAPS     O14      O2L     -0.780000       15.9994           0
       415 MEMB     26       SAPS     O12      OSLP    -0.570000       15.9994           0
       416 MEMB     26       SAPS     O11      OSLP    -0.570000       15.9994           0
       417 MEMB     26       SAPS     C1       CTL2    -0.800000E-01   12.0110           0
       418 MEMB     26       SAPS     HA       HAL2     0.900000E-01   1.00800           0
       419 MEMB     26       SAPS     HB       HAL2     0.900000E-01   1.00800           0
       420 MEMB     26       SAPS     C2       CTL1     0.170000       12.0110           0
       421 MEMB     26       SAPS     HS       HAL1     0.900000E-01   1.00800           0
       422 MEMB     26       SAPS     O21      OSL     -0.490000       15.9994           0
       423 MEMB     26       SAPS     C21      CL       0.900000       12.0110           0
       424 MEMB     26       SAPS     O22      OBL     -0.630000       15.9994           0
       425 MEMB     26       SAPS     C22      CTL2    -0.220000       12.0110           0
       426 MEMB     26       SAPS     H2R      HAL2     0.900000E-01   1.00800           0
       427 MEMB     26       SAPS     H2S      HAL2     0.900000E-01   1.00800           0
       428 MEMB     26       SAPS     C3       CTL2     0.800000E-01   12.0110           0
       429 MEMB     26       SAPS     HX       HAL2     0.900000E-01   1.00800           0
       430 MEMB     26       SAPS     HY       HAL2     0.900000E-01   1.00800           0
       431 MEMB     26       SAPS     O31      OSL     -0.490000       15.9994           0
       432 MEMB     26       SAPS     C31      CL       0.900000       12.0110           0
       433 MEMB     26       SAPS     O32      OBL     -0.630000       15.9994           0
       434 MEMB     26       SAPS     C32      CTL2    -0.220000       12.0110           0
       435 MEMB     26       SAPS     H2X      HAL2     0.900000E-01   1.00800           0
       436 MEMB     26       SAPS     H2Y      HAL2     0.900000E-01   1.00800           0
       437 MEMB     26       SAPS     C23      CTL2    -0.180000       12.0110           0
       438 MEMB     26       SAPS     H3R      HAL2     0.900000E-01   1.00800           0
       439 MEMB     26       SAPS     H3S      HAL2     0.900000E-01   1.00800           0
       440 MEMB     26       SAPS     C24      CTL2    -0.180000       12.0110           0
       441 MEMB     26       SAPS     H4R      HAL2     0.900000E-01   1.00800           0
       442 MEMB     26       SAPS     H4S      HAL2     0.900000E-01   1.00800           0
       443 MEMB     26       SAPS     C25      CEL1    -0.150000       12.0110           0
       444 MEMB     26       SAPS     H5R      HEL1     0.150000       1.00800           0
       445 MEMB     26       SAPS     C26      CEL1    -0.150000       12.0110           0
       446 MEMB     26       SAPS     H6R      HEL1     0.150000       1.00800           0
       447 MEMB     26       SAPS     C27      CTL2    -0.180000       12.0110           0
       448 MEMB     26       SAPS     H7R      HAL2     0.900000E-01   1.00800           0
       449 MEMB     26       SAPS     H7S      HAL2     0.900000E-01   1.00800           0
       450 MEMB     26       SAPS     C28      CEL1    -0.150000       12.0110           0
       451 MEMB     26       SAPS     H8R      HEL1     0.150000       1.00800           0
       452 MEMB     26       SAPS     C29      CEL1    -0.150000       12.0110           0
       453 MEMB     26       SAPS     H9R      HEL1     0.150000       1.00800           0
       454 MEMB     26       SAPS     C210     CTL2    -0.180000       12.0110           0
       455 MEMB     26       SAPS     H10R     HAL2     0.900000E-01   1.00800           0
       456 MEMB     26       SAPS     H10S     HAL2     0.900000E-01   1.00800           0
       457 MEMB     26       SAPS     C211     CEL1    -0.150000       12.0110           0
       458 MEMB     26       SAPS     H11R     HEL1     0.150000       1.00800           0
       459 MEMB     26       SAPS     C212     CEL1    -0.150000       12.0110           0
       460 MEMB     26       SAPS     H12R     HEL1     0.150000       1.00800           0
       461 MEMB     26       SAPS     C213     CTL2    -0.180000       12.0110           0
       462 MEMB     26       SAPS     H13R     HAL2     0.900000E-01   1.00800           0
       463 MEMB     26       SAPS     H13S     HAL2     0.900000E-01   1.00800           0
       464 MEMB     26       SAPS     C214     CEL1    -0.150000       12.0110           0
       465 MEMB     26       SAPS     H14R     HEL1     0.150000       1.00800           0
       466 MEMB     26       SAPS     C215     CEL1    -0.150000       12.0110           0
       467 MEMB     26       SAPS     H15R     HEL1     0.150000       1.00800           0
       468 MEMB     26       SAPS     C216     CTL2    -0.180000       12.0110           0
       469 MEMB     26       SAPS     H16R     HAL2     0.900000E-01   1.00800           0
       470 MEMB     26       SAPS     H16S     HAL2     0.900000E-01   1.00800           0
       471 MEMB     26       SAPS     C217     CTL2    -0.180000       12.0110           0
       472 MEMB     26       SAPS     H17R     HAL2     0.900000E-01   1.00800           0
       473 MEMB     26       SAPS     H17S     HAL2     0.900000E-01   1.00800           0
       474 MEMB     26       SAPS     C218     CTL2    -0.180000       12.0110           0
       475 MEMB     26       SAPS     H18R     HAL2     0.900000E-01   1.00800           0
       476 MEMB     26       SAPS     H18S     HAL2     0.900000E-01   1.00800           0
       477 MEMB     26       SAPS     C219     CTL2    -0.180000       12.0110           0
       478 MEMB     26       SAPS     H19R     HAL2     0.900000E-01   1.00800           0
       479 MEMB     26       SAPS     H19S     HAL2     0.900000E-01   1.00800           0
       480 MEMB     26       SAPS     C220     CTL3    -0.270000       12.0110           0
       481 MEMB     26       SAPS     H20R     HAL3     0.900000E-01   1.00800           0
       482 MEMB     26       SAPS     H20S     HAL3     0.900000E-01   1.00800           0
       483 MEMB     26       SAPS     H20T     HAL3     0.900000E-01   1.00800           0
       484 MEMB     26       SAPS     C33      CTL2    -0.180000       12.0110           0
       485 MEMB     26       SAPS     H3X      HAL2     0.900000E-01   1.00800           0
       486 MEMB     26       SAPS     H3Y      HAL2     0.900000E-01   1.00800           0
       487 MEMB     26       SAPS     C34      CTL2    -0.180000       12.0110           0
       488 MEMB     26       SAPS     H4X      HAL2     0.900000E-01   1.00800           0
       489 MEMB     26       SAPS     H4Y      HAL2     0.900000E-01   1.00800           0
       490 MEMB     26       SAPS     C35      CTL2    -0.180000       12.0110           0
       491 MEMB     26       SAPS     H5X      HAL2     0.900000E-01   1.00800           0
       492 MEMB     26       SAPS     H5Y      HAL2     0.900000E-01   1.00800           0
       493 MEMB     26       SAPS     C36      CTL2    -0.180000       12.0110           0
       494 MEMB     26       SAPS     H6X      HAL2     0.900000E-01   1.00800           0
       495 MEMB     26       SAPS     H6Y      HAL2     0.900000E-01   1.00800           0
       496 MEMB     26       SAPS     C37      CTL2    -0.180000       12.0110           0
       497 MEMB     26       SAPS     H7X      HAL2     0.900000E-01   1.00800           0
       498 MEMB     26       SAPS     H7Y      HAL2     0.900000E-01   1.00800           0
       499 MEMB     26       SAPS     C38      CTL2    -0.180000       12.0110           0
       500 MEMB     26       SAPS     H8X      HAL2     0.900000E-01   1.00800           0
       501 MEMB     26       SAPS     H8Y      HAL2     0.900000E-01   1.00800           0
       502 MEMB     26       SAPS     C39      CTL2    -0.180000       12.0110           0
       503 MEMB     26       SAPS     H9X      HAL2     0.900000E-01   1.00800           0
       504 MEMB     26       SAPS     H9Y      HAL2     0.900000E-01   1.00800           0
       505 MEMB     26       SAPS     C310     CTL2    -0.180000       12.0110           0
       506 MEMB     26       SAPS     H10X     HAL2     0.900000E-01   1.00800           0
       507 MEMB     26       SAPS     H10Y     HAL2     0.900000E-01   1.00800           0
       508 MEMB     26       SAPS     C311     CTL2    -0.180000       12.0110           0
       509 MEMB     26       SAPS     H11X     HAL2     0.900000E-01   1.00800           0
       510 MEMB     26       SAPS     H11Y     HAL2     0.900000E-01   1.00800           0
       511 MEMB     26       SAPS     C312     CTL2    -0.180000       12.0110           0
       512 MEMB     26       SAPS     H12X     HAL2     0.900000E-01   1.00800           0
       513 MEMB     26       SAPS     H12Y     HAL2     0.900000E-01   1.00800           0
       514 MEMB     26       SAPS     C313     CTL2    -0.180000       12.0110           0
       515 MEMB     26       SAPS     H13X     HAL2     0.900000E-01   1.00800           0
       516 MEMB     26       SAPS     H13Y     HAL2     0.900000E-01   1.00800           0
       517 MEMB     26       SAPS     C314     CTL2    -0.180000       12.0110           0
       518 MEMB     26       SAPS     H14X     HAL2     0.900000E-01   1.00800           0
       519 MEMB     26       SAPS     H14Y     HAL2     0.900000E-01   1.00800           0
       520 MEMB     26       SAPS     C315     CTL2    -0.180000       12.0110           0
       521 MEMB     26       SAPS     H15X     HAL2     0.900000E-01   1.00800           0
       522 MEMB     26       SAPS     H15Y     HAL2     0.900000E-01   1.00800           0
       523 MEMB     26       SAPS     C316     CTL2    -0.180000       12.0110           0
       524 MEMB     26       SAPS     H16X     HAL2     0.900000E-01   1.00800           0
       525 MEMB     26       SAPS     H16Y     HAL2     0.900000E-01   1.00800           0
       526 MEMB     26       SAPS     C317     CTL2    -0.180000       12.0110           0
       527 MEMB     26       SAPS     H17X     HAL2     0.900000E-01   1.00800           0
       528 MEMB     26       SAPS     H17Y     HAL2     0.900000E-01   1.00800           0
       529 MEMB     26       SAPS     C318     CTL3    -0.270000       12.0110           0
       530 MEMB     26       SAPS     H18X     HAL3     0.900000E-01   1.00800           0
       531 MEMB     26       SAPS     H18Y     HAL3     0.900000E-01   1.00800           0
       532 MEMB     26       SAPS     H18Z     HAL3     0.900000E-01   1.00800           0
       533 MEMB     37       SAPS     N        NH3L    -0.300000       14.0070           0
       534 MEMB     37       SAPS     HN1      HCL      0.330000       1.00800           0
       535 MEMB     37       SAPS     HN2      HCL      0.330000       1.00800           0
       536 MEMB     37       SAPS     HN3      HCL      0.330000       1.00800           0
       537 MEMB     37       SAPS     C12      CTL1     0.210000       12.0110           0
       538 MEMB     37       SAPS     H12A     HBL      0.100000       1.00800           0
       539 MEMB     37       SAPS     C13      CCL      0.340000       12.0110           0
       540 MEMB     37       SAPS     O13A     OCL     -0.670000       15.9994           0
       541 MEMB     37       SAPS     O13B     OCL     -0.670000       15.9994           0
       542 MEMB     37       SAPS     C11      CTL2    -0.800000E-01   12.0110           0
       543 MEMB     37       SAPS     H11A     HAL2     0.900000E-01   1.00800           0
       544 MEMB     37       SAPS     H11B     HAL2     0.900000E-01   1.00800           0
       545 MEMB     37       SAPS     P        PL       1.500000       30.9740           0
       546 MEMB     37       SAPS     O13      O2L     -0.780000       15.9994           0
       547 MEMB     37       SAPS     O14      O2L     -0.780000       15.9994           0
       548 MEMB     37       SAPS     O12      OSLP    -0.570000       15.9994           0
       549 MEMB     37       SAPS     O11      OSLP    -0.570000       15.9994           0
       550 MEMB     37       SAPS     C1       CTL2    -0.800000E-01   12.0110           0
       551 MEMB     37       SAPS     HA       HAL2     0.900000E-01   1.00800           0
       552 MEMB     37       SAPS     HB       HAL2     0.900000E-01   1.00800           0
       553 MEMB     37       SAPS     C2       CTL1     0.170000       12.0110           0
       554 MEMB     37       SAPS     HS       HAL1     0.900000E-01   1.00800           0
       555 MEMB     37       SAPS     O21      OSL     -0.490000       15.9994           0
       556 MEMB     37       SAPS     C21      CL       0.900000       12.0110           0
       557 MEMB     37       SAPS     O22      OBL     -0.630000       15.9994           0
       558 MEMB     37       SAPS     C22      CTL2    -0.220000       12.0110           0
       559 MEMB     37       SAPS     H2R      HAL2     0.900000E-01   1.00800           0
       560 MEMB     37       SAPS     H2S      HAL2     0.900000E-01   1.00800           0
       561 MEMB     37       SAPS     C3       CTL2     0.800000E-01   12.0110           0
       562 MEMB     37       SAPS     HX       HAL2     0.900000E-01   1.00800           0
       563 MEMB     37       SAPS     HY       HAL2     0.900000E-01   1.00800           0
       564 MEMB     37       SAPS     O31      OSL     -0.490000       15.9994           0
       565 MEMB     37       SAPS     C31      CL       0.900000       12.0110           0
       566 MEMB     37       SAPS     O32      OBL     -0.630000       15.9994           0
       567 MEMB     37       SAPS     C32      CTL2    -0.220000       12.0110           0
       568 MEMB     37       SAPS     H2X      HAL2     0.900000E-01   1.00800           0
       569 MEMB     37       SAPS     H2Y      HAL2     0.900000E-01   1.00800           0
       570 MEMB     37       SAPS     C23      CTL2    -0.180000       12.0110           0
       571 MEMB     37       SAPS     H3R      HAL2     0.900000E-01   1.00800           0
       572 MEMB     37       SAPS     H3S      HAL2     0.900000E-01   1.00800           0
       573 MEMB     37       SAPS     C24      CTL2    -0.180000       12.0110           0
       574 MEMB     37       SAPS     H4R      HAL2     0.900000E-01   1.00800           0
       575 MEMB     37       SAPS     H4S      HAL2     0.900000E-01   1.00800           0
       576 MEMB     37       SAPS     C25      CEL1    -0.150000       12.0110           0
       577 MEMB     37       SAPS     H5R      HEL1     0.150000       1.00800           0
       578 MEMB     37       SAPS     C26      CEL1    -0.150000       12.0110           0
       579 MEMB     37       SAPS     H6R      HEL1     0.150000       1.00800           0
       580 MEMB     37       SAPS     C27      CTL2    -0.180000       12.0110           0
       581 MEMB     37       SAPS     H7R      HAL2     0.900000E-01   1.00800           0
       582 MEMB     37       SAPS     H7S      HAL2     0.900000E-01   1.00800           0
       583 MEMB     37       SAPS     C28      CEL1    -0.150000       12.0110           0
       584 MEMB     37       SAPS     H8R      HEL1     0.150000       1.00800           0
       585 MEMB     37       SAPS     C29      CEL1    -0.150000       12.0110           0
       586 MEMB     37       SAPS     H9R      HEL1     0.150000       1.00800           0
       587 MEMB     37       SAPS     C210     CTL2    -0.180000       12.0110           0
       588 MEMB     37       SAPS     H10R     HAL2     0.900000E-01   1.00800           0
       589 MEMB     37       SAPS     H10S     HAL2     0.900000E-01   1.00800           0
       590 MEMB     37       SAPS     C211     CEL1    -0.150000       12.0110           0
       591 MEMB     37       SAPS     H11R     HEL1     0.150000       1.00800           0
       592 MEMB     37       SAPS     C212     CEL1    -0.150000       12.0110           0
       593 MEMB     37       SAPS     H12R     HEL1     0.150000       1.00800           0
       594 MEMB     37       SAPS     C213     CTL2    -0.180000       12.0110           0
       595 MEMB     37       SAPS     H13R     HAL2     0.900000E-01   1.00800           0
       596 MEMB     37       SAPS     H13S     HAL2     0.900000E-01   1.00800           0
       597 MEMB     37       SAPS     C214     CEL1    -0.150000       12.0110           0
       598 MEMB     37       SAPS     H14R     HEL1     0.150000       1.00800           0
       599 MEMB     37       SAPS     C215     CEL1    -0.150000       12.0110           0
       600 MEMB     37       SAPS     H15R     HEL1     0.150000       1.00800           0
       601 MEMB     37       SAPS     C216     CTL2    -0.180000       12.0110           0
       602 MEMB     37       SAPS     H16R     HAL2     0.900000E-01   1.00800           0
       603 MEMB     37       SAPS     H16S     HAL2     0.900000E-01   1.00800           0
       604 MEMB     37       SAPS     C217     CTL2    -0.180000       12.0110           0
       605 MEMB     37       SAPS     H17R     HAL2     0.900000E-01   1.00800           0
       606 MEMB     37       SAPS     H17S     HAL2     0.900000E-01   1.00800           0
       607 MEMB     37       SAPS     C218     CTL2    -0.180000       12.0110           0
       608 MEMB     37       SAPS     H18R     HAL2     0.900000E-01   1.00800           0
       609 MEMB     37       SAPS     H18S     HAL2     0.900000E-01   1.00800           0
       610 MEMB     37       SAPS     C219     CTL2    -0.180000       12.0110           0
       611 MEMB     37       SAPS     H19R     HAL2     0.900000E-01   1.00800           0
       612 MEMB     37       SAPS     H19S     HAL2     0.900000E-01   1.00800           0
       613 MEMB     37       SAPS     C220     CTL3    -0.270000       12.0110           0
       614 MEMB     37       SAPS     H20R     HAL3     0.900000E-01   1.00800           0
       615 MEMB     37       SAPS     H20S     HAL3     0.900000E-01   1.00800           0
       616 MEMB     37       SAPS     H20T     HAL3     0.900000E-01   1.00800           0
       617 MEMB     37       SAPS     C33      CTL2    -0.180000       12.0110           0
       618 MEMB     37       SAPS     H3X      HAL2     0.900000E-01   1.00800           0
       619 MEMB     37       SAPS     H3Y      HAL2     0.900000E-01   1.00800           0
       620 MEMB     37       SAPS     C34      CTL2    -0.180000       12.0110           0
       621 MEMB     37       SAPS     H4X      HAL2     0.900000E-01   1.00800           0
       622 MEMB     37       SAPS     H4Y      HAL2     0.900000E-01   1.00800           0
       623 MEMB     37       SAPS     C35      CTL2    -0.180000       12.0110           0
       624 MEMB     37       SAPS     H5X      HAL2     0.900000E-01   1.00800           0
       625 MEMB     37       SAPS     H5Y      HAL2     0.900000E-01   1.00800           0
       626 MEMB     37       SAPS     C36      CTL2    -0.180000       12.0110           0
       627 MEMB     37       SAPS     H6X      HAL2     0.900000E-01   1.00800           0
       628 MEMB     37       SAPS     H6Y      HAL2     0.900000E-01   1.00800           0
       629 MEMB     37       SAPS     C37      CTL2    -0.180000       12.0110           0
       630 MEMB     37       SAPS     H7X      HAL2     0.900000E-01   1.00800           0
       631 MEMB     37       SAPS     H7Y      HAL2     0.900000E-01   1.00800           0
       632 MEMB     37       SAPS     C38      CTL2    -0.180000       12.0110           0
       633 MEMB     37       SAPS     H8X      HAL2     0.900000E-01   1.00800           0
       634 MEMB     37       SAPS     H8Y      HAL2     0.900000E-01   1.00800           0
       635 MEMB     37       SAPS     C39      CTL2    -0.180000       12.0110           0
       636 MEMB     37       SAPS     H9X      HAL2     0.900000E-01   1.00800           0
       637 MEMB     37       SAPS     H9Y      HAL2     0.900000E-01   1.00800           0
       638 MEMB     37       SAPS     C310     CTL2    -0.180000       12.0110           0
       639 MEMB     37       SAPS     H10X     HAL2     0.900000E-01   1.00800           0
       640 MEMB     37       SAPS     H10Y     HAL2     0.900000E-01   1.00800           0
       641 MEMB     37       SAPS     C311     CTL2    -0.180000       12.0110           0
       642 MEMB     37       SAPS     H11X     HAL2     0.900000E-01   1.00800           0
       643 MEMB     37       SAPS     H11Y     HAL2     0.900000E-01   1.00800           0
       644 MEMB     37       SAPS     C312     CTL2    -0.180000       12.0110           0
       645 MEMB     37       SAPS     H12X     HAL2     0.900000E-01   1.00800           0
       646 MEMB     37       SAPS     H12Y     HAL2     0.900000E-01   1.00800           0
       647 MEMB     37       SAPS     C313     CTL2    -0.180000       12.0110           0
       648 MEMB     37       SAPS     H13X     HAL2     0.900000E-01   1.00800           0
       649 MEMB     37       SAPS     H13Y     HAL2     0.900000E-01   1.00800           0
       650 MEMB     37       SAPS     C314     CTL2    -0.180000       12.0110           0
       651 MEMB     37       SAPS     H14X     HAL2     0.900000E-01   1.00800           0
       652 MEMB     37       SAPS     H14Y     HAL2     0.900000E-01   1.00800           0
       653 MEMB     37       SAPS     C315     CTL2    -0.180000       12.0110           0
       654 MEMB     37       SAPS     H15X     HAL2     0.900000E-01   1.00800           0
       655 MEMB     37       SAPS     H15Y     HAL2     0.900000E-01   1.00800           0
       656 MEMB     37       SAPS     C316     CTL2    -0.180000       12.0110           0
       657 MEMB     37       SAPS     H16X     HAL2     0.900000E-01   1.00800           0
       658 MEMB     37       SAPS     H16Y     HAL2     0.900000E-01   1.00800           0
       659 MEMB     37       SAPS     C317     CTL2    -0.180000       12.0110           0
       660 MEMB     37       SAPS     H17X     HAL2     0.900000E-01   1.00800           0
       661 MEMB     37       SAPS     H17Y     HAL2     0.900000E-01   1.00800           0
       662 MEMB     37       SAPS     C318     CTL3    -0.270000       12.0110           0
       663 MEMB     37       SAPS     H18X     HAL3     0.900000E-01   1.00800           0
       664 MEMB     37       SAPS     H18Y     HAL3     0.900000E-01   1.00800           0
       665 MEMB     37       SAPS     H18Z     HAL3     0.900000E-01   1.00800           0
       666 MEMB     43       SAPS     N        NH3L    -0.300000       14.0070           0
       667 MEMB     43       SAPS     HN1      HCL      0.330000       1.00800           0
       668 MEMB     43       SAPS     HN2      HCL      0.330000       1.00800           0
       669 MEMB     43       SAPS     HN3      HCL      0.330000       1.00800           0
       670 MEMB     43       SAPS     C12      CTL1     0.210000       12.0110           0
       671 MEMB     43       SAPS     H12A     HBL      0.100000       1.00800           0
       672 MEMB     43       SAPS     C13      CCL      0.340000       12.0110           0
       673 MEMB     43       SAPS     O13A     OCL     -0.670000       15.9994           0
       674 MEMB     43       SAPS     O13B     OCL     -0.670000       15.9994           0
       675 MEMB     43       SAPS     C11      CTL2    -0.800000E-01   12.0110           0
       676 MEMB     43       SAPS     H11A     HAL2     0.900000E-01   1.00800           0
       677 MEMB     43       SAPS     H11B     HAL2     0.900000E-01   1.00800           0
       678 MEMB     43       SAPS     P        PL       1.500000       30.9740           0
       679 MEMB     43       SAPS     O13      O2L     -0.780000       15.9994           0
       680 MEMB     43       SAPS     O14      O2L     -0.780000       15.9994           0
       681 MEMB     43       SAPS     O12      OSLP    -0.570000       15.9994           0
       682 MEMB     43       SAPS     O11      OSLP    -0.570000       15.9994           0
       683 MEMB     43       SAPS     C1       CTL2    -0.800000E-01   12.0110           0
       684 MEMB     43       SAPS     HA       HAL2     0.900000E-01   1.00800           0
       685 MEMB     43       SAPS     HB       HAL2     0.900000E-01   1.00800           0
       686 MEMB     43       SAPS     C2       CTL1     0.170000       12.0110           0
       687 MEMB     43       SAPS     HS       HAL1     0.900000E-01   1.00800           0
       688 MEMB     43       SAPS     O21      OSL     -0.490000       15.9994           0
       689 MEMB     43       SAPS     C21      CL       0.900000       12.0110           0
       690 MEMB     43       SAPS     O22      OBL     -0.630000       15.9994           0
       691 MEMB     43       SAPS     C22      CTL2    -0.220000       12.0110           0
       692 MEMB     43       SAPS     H2R      HAL2     0.900000E-01   1.00800           0
       693 MEMB     43       SAPS     H2S      HAL2     0.900000E-01   1.00800           0
       694 MEMB     43       SAPS     C3       CTL2     0.800000E-01   12.0110           0
       695 MEMB     43       SAPS     HX       HAL2     0.900000E-01   1.00800           0
       696 MEMB     43       SAPS     HY       HAL2     0.900000E-01   1.00800           0
       697 MEMB     43       SAPS     O31      OSL     -0.490000       15.9994           0
       698 MEMB     43       SAPS     C31      CL       0.900000       12.0110           0
       699 MEMB     43       SAPS     O32      OBL     -0.630000       15.9994           0
       700 MEMB     43       SAPS     C32      CTL2    -0.220000       12.0110           0
       701 MEMB     43       SAPS     H2X      HAL2     0.900000E-01   1.00800           0
       702 MEMB     43       SAPS     H2Y      HAL2     0.900000E-01   1.00800           0
       703 MEMB     43       SAPS     C23      CTL2    -0.180000       12.0110           0
       704 MEMB     43       SAPS     H3R      HAL2     0.900000E-01   1.00800           0
       705 MEMB     43       SAPS     H3S      HAL2     0.900000E-01   1.00800           0
       706 MEMB     43       SAPS     C24      CTL2    -0.180000       12.0110           0
       707 MEMB     43       SAPS     H4R      HAL2     0.900000E-01   1.00800           0
       708 MEMB     43       SAPS     H4S      HAL2     0.900000E-01   1.00800           0
       709 MEMB     43       SAPS     C25      CEL1    -0.150000       12.0110           0
       710 MEMB     43       SAPS     H5R      HEL1     0.150000       1.00800           0
       711 MEMB     43       SAPS     C26      CEL1    -0.150000       12.0110           0
       712 MEMB     43       SAPS     H6R      HEL1     0.150000       1.00800           0
       713 MEMB     43       SAPS     C27      CTL2    -0.180000       12.0110           0
       714 MEMB     43       SAPS     H7R      HAL2     0.900000E-01   1.00800           0
       715 MEMB     43       SAPS     H7S      HAL2     0.900000E-01   1.00800           0
       716 MEMB     43       SAPS     C28      CEL1    -0.150000       12.0110           0
       717 MEMB     43       SAPS     H8R      HEL1     0.150000       1.00800           0
       718 MEMB     43       SAPS     C29      CEL1    -0.150000       12.0110           0
       719 MEMB     43       SAPS     H9R      HEL1     0.150000       1.00800           0
       720 MEMB     43       SAPS     C210     CTL2    -0.180000       12.0110           0
       721 MEMB     43       SAPS     H10R     HAL2     0.900000E-01   1.00800           0
       722 MEMB     43       SAPS     H10S     HAL2     0.900000E-01   1.00800           0
       723 MEMB     43       SAPS     C211     CEL1    -0.150000       12.0110           0
       724 MEMB     43       SAPS     H11R     HEL1     0.150000       1.00800           0
       725 MEMB     43       SAPS     C212     CEL1    -0.150000       12.0110           0
       726 MEMB     43       SAPS     H12R     HEL1     0.150000       1.00800           0
       727 MEMB     43       SAPS     C213     CTL2    -0.180000       12.0110           0
       728 MEMB     43       SAPS     H13R     HAL2     0.900000E-01   1.00800           0
       729 MEMB     43       SAPS     H13S     HAL2     0.900000E-01   1.00800           0
       730 MEMB     43       SAPS     C214     CEL1    -0.150000       12.0110           0
       731 MEMB     43       SAPS     H14R     HEL1     0.150000       1.00800           0
       732 MEMB     43       SAPS     C215     CEL1    -0.150000       12.0110           0
       733 MEMB     43       SAPS     H15R     HEL1     0.150000       1.00800           0
       734 MEMB     43       SAPS     C216     CTL2    -0.180000       12.0110           0
       735 MEMB     43       SAPS     H16R     HAL2     0.900000E-01   1.00800           0
       736 MEMB     43       SAPS     H16S     HAL2     0.900000E-01   1.00800           0
       737 MEMB     43       SAPS     C217     CTL2    -0.180000       12.0110           0
       738 MEMB     43       SAPS     H17R     HAL2     0.900000E-01   1.00800           0
       739 MEMB     43       SAPS     H17S     HAL2     0.900000E-01   1.00800           0
       740 MEMB     43       SAPS     C218     CTL2    -0.180000       12.0110           0
       741 MEMB     43       SAPS     H18R     HAL2     0.900000E-01   1.00800           0
       742 MEMB     43       SAPS     H18S     HAL2     0.900000E-01   1.00800           0
       743 MEMB     43       SAPS     C219     CTL2    -0.180000       12.0110           0
       744 MEMB     43       SAPS     H19R     HAL2     0.900000E-01   1.00800           0
       745 MEMB     43       SAPS     H19S     HAL2     0.900000E-01   1.00800           0
       746 MEMB     43       SAPS     C220     CTL3    -0.270000       12.0110           0
       747 MEMB     43       SAPS     H20R     HAL3     0.900000E-01   1.00800           0
       748 MEMB     43       SAPS     H20S     HAL3     0.900000E-01   1.00800           0
       749 MEMB     43       SAPS     H20T     HAL3     0.900000E-01   1.00800           0
       750 MEMB     43       SAPS     C33      CTL2    -0.180000       12.0110           0
       751 MEMB     43       SAPS     H3X      HAL2     0.900000E-01   1.00800           0
       752 MEMB     43       SAPS     H3Y      HAL2     0.900000E-01   1.00800           0
       753 MEMB     43       SAPS     C34      CTL2    -0.180000       12.0110           0
       754 MEMB     43       SAPS     H4X      HAL2     0.900000E-01   1.00800           0
       755 MEMB     43       SAPS     H4Y      HAL2     0.900000E-01   1.00800           0
       756 MEMB     43       SAPS     C35      CTL2    -0.180000       12.0110           0
       757 MEMB     43       SAPS     H5X      HAL2     0.900000E-01   1.00800           0
       758 MEMB     43       SAPS     H5Y      HAL2     0.900000E-01   1.00800           0
       759 MEMB     43       SAPS     C36      CTL2    -0.180000       12.0110           0
       760 MEMB     43       SAPS     H6X      HAL2     0.900000E-01   1.00800           0
       761 MEMB     43       SAPS     H6Y      HAL2     0.900000E-01   1.00800           0
       762 MEMB     43       SAPS     C37      CTL2    -0.180000       12.0110           0
       763 MEMB     43       SAPS     H7X      HAL2     0.900000E-01   1.00800           0
       764 MEMB     43       SAPS     H7Y      HAL2     0.900000E-01   1.00800           0
       765 MEMB     43       SAPS     C38      CTL2    -0.180000       12.0110           0
       766 MEMB     43       SAPS     H8X      HAL2     0.900000E-01   1.00800           0
       767 MEMB     43       SAPS     H8Y      HAL2     0.900000E-01   1.00800           0
       768 MEMB     43       SAPS     C39      CTL2    -0.180000       12.0110           0
       769 MEMB     43       SAPS     H9X      HAL2     0.900000E-01   1.00800           0
       770 MEMB     43       SAPS     H9Y      HAL2     0.900000E-01   1.00800           0
       771 MEMB     43       SAPS     C310     CTL2    -0.180000       12.0110           0
       772 MEMB     43       SAPS     H10X     HAL2     0.900000E-01   1.00800           0
       773 MEMB     43       SAPS     H10Y     HAL2     0.900000E-01   1.00800           0
       774 MEMB     43       SAPS     C311     CTL2    -0.180000       12.0110           0
       775 MEMB     43       SAPS     H11X     HAL2     0.900000E-01   1.00800           0
       776 MEMB     43       SAPS     H11Y     HAL2     0.900000E-01   1.00800           0
       777 MEMB     43       SAPS     C312     CTL2    -0.180000       12.0110           0
       778 MEMB     43       SAPS     H12X     HAL2     0.900000E-01   1.00800           0
       779 MEMB     43       SAPS     H12Y     HAL2     0.900000E-01   1.00800           0
       780 MEMB     43       SAPS     C313     CTL2    -0.180000       12.0110           0
       781 MEMB     43       SAPS     H13X     HAL2     0.900000E-01   1.00800           0
       782 MEMB     43       SAPS     H13Y     HAL2     0.900000E-01   1.00800           0
       783 MEMB     43       SAPS     C314     CTL2    -0.180000       12.0110           0
       784 MEMB     43       SAPS     H14X     HAL2     0.900000E-01   1.00800           0
       785 MEMB     43       SAPS     H14Y     HAL2     0.900000E-01   1.00800           0
       786 MEMB     43       SAPS     C315     CTL2    -0.180000       12.0110           0
       787 MEMB     43       SAPS     H15X     HAL2     0.900000E-01   1.00800           0
       788 MEMB     43       SAPS     H15Y     HAL2     0.900000E-01   1.00800           0
       789 MEMB     43       SAPS     C316     CTL2    -0.180000       12.0110           0
       790 MEMB     43       SAPS     H16X     HAL2     0.900000E-01   1.00800           0
       791 MEMB     43       SAPS     H16Y     HAL2     0.900000E-01   1.00800           0
       792 MEMB     43       SAPS     C317     CTL2    -0.180000       12.0110           0
       793 MEMB     43       SAPS     H17X     HAL2     0.900000E-01   1.00800           0
       794 MEMB     43       SAPS     H17Y     HAL2     0.900000E-01   1.00800           0
       795 MEMB     43       SAPS     C318     CTL3    -0.270000       12.0110           0
       796 MEMB     43       SAPS     H18X     HAL3     0.900000E-01   1.00800           0
       797 MEMB     43       SAPS     H18Y     HAL3     0.900000E-01   1.00800           0
       798 MEMB     43       SAPS     H18Z     HAL3     0.900000E-01   1.00800           0
       799 MEMB     66       SAPS     N        NH3L    -0.300000       14.0070           0
       800 MEMB     66       SAPS     HN1      HCL      0.330000       1.00800           0
       801 MEMB     66       SAPS     HN2      HCL      0.330000       1.00800           0
       802 MEMB     66       SAPS     HN3      HCL      0.330000       1.00800           0
       803 MEMB     66       SAPS     C12      CTL1     0.210000       12.0110           0
       804 MEMB     66       SAPS     H12A     HBL      0.100000       1.00800           0
       805 MEMB     66       SAPS     C13      CCL      0.340000       12.0110           0
       806 MEMB     66       SAPS     O13A     OCL     -0.670000       15.9994           0
       807 MEMB     66       SAPS     O13B     OCL     -0.670000       15.9994           0
       808 MEMB     66       SAPS     C11      CTL2    -0.800000E-01   12.0110           0
       809 MEMB     66       SAPS     H11A     HAL2     0.900000E-01   1.00800           0
       810 MEMB     66       SAPS     H11B     HAL2     0.900000E-01   1.00800           0
       811 MEMB     66       SAPS     P        PL       1.500000       30.9740           0
       812 MEMB     66       SAPS     O13      O2L     -0.780000       15.9994           0
       813 MEMB     66       SAPS     O14      O2L     -0.780000       15.9994           0
       814 MEMB     66       SAPS     O12      OSLP    -0.570000       15.9994           0
       815 MEMB     66       SAPS     O11      OSLP    -0.570000       15.9994           0
       816 MEMB     66       SAPS     C1       CTL2    -0.800000E-01   12.0110           0
       817 MEMB     66       SAPS     HA       HAL2     0.900000E-01   1.00800           0
       818 MEMB     66       SAPS     HB       HAL2     0.900000E-01   1.00800           0
       819 MEMB     66       SAPS     C2       CTL1     0.170000       12.0110           0
       820 MEMB     66       SAPS     HS       HAL1     0.900000E-01   1.00800           0
       821 MEMB     66       SAPS     O21      OSL     -0.490000       15.9994           0
       822 MEMB     66       SAPS     C21      CL       0.900000       12.0110           0
       823 MEMB     66       SAPS     O22      OBL     -0.630000       15.9994           0
       824 MEMB     66       SAPS     C22      CTL2    -0.220000       12.0110           0
       825 MEMB     66       SAPS     H2R      HAL2     0.900000E-01   1.00800           0
       826 MEMB     66       SAPS     H2S      HAL2     0.900000E-01   1.00800           0
       827 MEMB     66       SAPS     C3       CTL2     0.800000E-01   12.0110           0
       828 MEMB     66       SAPS     HX       HAL2     0.900000E-01   1.00800           0
       829 MEMB     66       SAPS     HY       HAL2     0.900000E-01   1.00800           0
       830 MEMB     66       SAPS     O31      OSL     -0.490000       15.9994           0
       831 MEMB     66       SAPS     C31      CL       0.900000       12.0110           0
       832 MEMB     66       SAPS     O32      OBL     -0.630000       15.9994           0
       833 MEMB     66       SAPS     C32      CTL2    -0.220000       12.0110           0
       834 MEMB     66       SAPS     H2X      HAL2     0.900000E-01   1.00800           0
       835 MEMB     66       SAPS     H2Y      HAL2     0.900000E-01   1.00800           0
       836 MEMB     66       SAPS     C23      CTL2    -0.180000       12.0110           0
       837 MEMB     66       SAPS     H3R      HAL2     0.900000E-01   1.00800           0
       838 MEMB     66       SAPS     H3S      HAL2     0.900000E-01   1.00800           0
       839 MEMB     66       SAPS     C24      CTL2    -0.180000       12.0110           0
       840 MEMB     66       SAPS     H4R      HAL2     0.900000E-01   1.00800           0
       841 MEMB     66       SAPS     H4S      HAL2     0.900000E-01   1.00800           0
       842 MEMB     66       SAPS     C25      CEL1    -0.150000       12.0110           0
       843 MEMB     66       SAPS     H5R      HEL1     0.150000       1.00800           0
       844 MEMB     66       SAPS     C26      CEL1    -0.150000       12.0110           0
       845 MEMB     66       SAPS     H6R      HEL1     0.150000       1.00800           0
       846 MEMB     66       SAPS     C27      CTL2    -0.180000       12.0110           0
       847 MEMB     66       SAPS     H7R      HAL2     0.900000E-01   1.00800           0
       848 MEMB     66       SAPS     H7S      HAL2     0.900000E-01   1.00800           0
       849 MEMB     66       SAPS     C28      CEL1    -0.150000       12.0110           0
       850 MEMB     66       SAPS     H8R      HEL1     0.150000       1.00800           0
       851 MEMB     66       SAPS     C29      CEL1    -0.150000       12.0110           0
       852 MEMB     66       SAPS     H9R      HEL1     0.150000       1.00800           0
       853 MEMB     66       SAPS     C210     CTL2    -0.180000       12.0110           0
       854 MEMB     66       SAPS     H10R     HAL2     0.900000E-01   1.00800           0
       855 MEMB     66       SAPS     H10S     HAL2     0.900000E-01   1.00800           0
       856 MEMB     66       SAPS     C211     CEL1    -0.150000       12.0110           0
       857 MEMB     66       SAPS     H11R     HEL1     0.150000       1.00800           0
       858 MEMB     66       SAPS     C212     CEL1    -0.150000       12.0110           0
       859 MEMB     66       SAPS     H12R     HEL1     0.150000       1.00800           0
       860 MEMB     66       SAPS     C213     CTL2    -0.180000       12.0110           0
       861 MEMB     66       SAPS     H13R     HAL2     0.900000E-01   1.00800           0
       862 MEMB     66       SAPS     H13S     HAL2     0.900000E-01   1.00800           0
       863 MEMB     66       SAPS     C214     CEL1    -0.150000       12.0110           0
       864 MEMB     66       SAPS     H14R     HEL1     0.150000       1.00800           0
       865 MEMB     66       SAPS     C215     CEL1    -0.150000       12.0110           0
       866 MEMB     66       SAPS     H15R     HEL1     0.150000       1.00800           0
       867 MEMB     66       SAPS     C216     CTL2    -0.180000       12.0110           0
       868 MEMB     66       SAPS     H16R     HAL2     0.900000E-01   1.00800           0
       869 MEMB     66       SAPS     H16S     HAL2     0.900000E-01   1.00800           0
       870 MEMB     66       SAPS     C217     CTL2    -0.180000       12.0110           0
       871 MEMB     66       SAPS     H17R     HAL2     0.900000E-01   1.00800           0
       872 MEMB     66       SAPS     H17S     HAL2     0.900000E-01   1.00800           0
       873 MEMB     66       SAPS     C218     CTL2    -0.180000       12.0110           0
       874 MEMB     66       SAPS     H18R     HAL2     0.900000E-01   1.00800           0
       875 MEMB     66       SAPS     H18S     HAL2     0.900000E-01   1.00800           0
       876 MEMB     66       SAPS     C219     CTL2    -0.180000       12.0110           0
       877 MEMB     66       SAPS     H19R     HAL2     0.900000E-01   1.00800           0
       878 MEMB     66       SAPS     H19S     HAL2     0.900000E-01   1.00800           0
       879 MEMB     66       SAPS     C220     CTL3    -0.270000       12.0110           0
       880 MEMB     66       SAPS     H20R     HAL3     0.900000E-01   1.00800           0
       881 MEMB     66       SAPS     H20S     HAL3     0.900000E-01   1.00800           0
       882 MEMB     66       SAPS     H20T     HAL3     0.900000E-01   1.00800           0
       883 MEMB     66       SAPS     C33      CTL2    -0.180000       12.0110           0
       884 MEMB     66       SAPS     H3X      HAL2     0.900000E-01   1.00800           0
       885 MEMB     66       SAPS     H3Y      HAL2     0.900000E-01   1.00800           0
       886 MEMB     66       SAPS     C34      CTL2    -0.180000       12.0110           0
       887 MEMB     66       SAPS     H4X      HAL2     0.900000E-01   1.00800           0
       888 MEMB     66       SAPS     H4Y      HAL2     0.900000E-01   1.00800           0
       889 MEMB     66       SAPS     C35      CTL2    -0.180000       12.0110           0
       890 MEMB     66       SAPS     H5X      HAL2     0.900000E-01   1.00800           0
       891 MEMB     66       SAPS     H5Y      HAL2     0.900000E-01   1.00800           0
       892 MEMB     66       SAPS     C36      CTL2    -0.180000       12.0110           0
       893 MEMB     66       SAPS     H6X      HAL2     0.900000E-01   1.00800           0
       894 MEMB     66       SAPS     H6Y      HAL2     0.900000E-01   1.00800           0
       895 MEMB     66       SAPS     C37      CTL2    -0.180000       12.0110           0
       896 MEMB     66       SAPS     H7X      HAL2     0.900000E-01   1.00800           0
       897 MEMB     66       SAPS     H7Y      HAL2     0.900000E-01   1.00800           0
       898 MEMB     66       SAPS     C38      CTL2    -0.180000       12.0110           0
       899 MEMB     66       SAPS     H8X      HAL2     0.900000E-01   1.00800           0
       900 MEMB     66       SAPS     H8Y      HAL2     0.900000E-01   1.00800           0
       901 MEMB     66       SAPS     C39      CTL2    -0.180000       12.0110           0
       902 MEMB     66       SAPS     H9X      HAL2     0.900000E-01   1.00800           0
       903 MEMB     66       SAPS     H9Y      HAL2     0.900000E-01   1.00800           0
       904 MEMB     66       SAPS     C310     CTL2    -0.180000       12.0110           0
       905 MEMB     66       SAPS     H10X     HAL2     0.900000E-01   1.00800           0
       906 MEMB     66       SAPS     H10Y     HAL2     0.900000E-01   1.00800           0
       907 MEMB     66       SAPS     C311     CTL2    -0.180000       12.0110           0
       908 MEMB     66       SAPS     H11X     HAL2     0.900000E-01   1.00800           0
       909 MEMB     66       SAPS     H11Y     HAL2     0.900000E-01   1.00800           0
       910 MEMB     66       SAPS     C312     CTL2    -0.180000       12.0110           0
       911 MEMB     66       SAPS     H12X     HAL2     0.900000E-01   1.00800           0
       912 MEMB     66       SAPS     H12Y     HAL2     0.900000E-01   1.00800           0
       913 MEMB     66       SAPS     C313     CTL2    -0.180000       12.0110           0
       914 MEMB     66       SAPS     H13X     HAL2     0.900000E-01   1.00800           0
       915 MEMB     66       SAPS     H13Y     HAL2     0.900000E-01   1.00800           0
       916 MEMB     66       SAPS     C314     CTL2    -0.180000       12.0110           0
       917 MEMB     66       SAPS     H14X     HAL2     0.900000E-01   1.00800           0
       918 MEMB     66       SAPS     H14Y     HAL2     0.900000E-01   1.00800           0
       919 MEMB     66       SAPS     C315     CTL2    -0.180000       12.0110           0
       920 MEMB     66       SAPS     H15X     HAL2     0.900000E-01   1.00800           0
       921 MEMB     66       SAPS     H15Y     HAL2     0.900000E-01   1.00800           0
       922 MEMB     66       SAPS     C316     CTL2    -0.180000       12.0110           0
       923 MEMB     66       SAPS     H16X     HAL2     0.900000E-01   1.00800           0
       924 MEMB     66       SAPS     H16Y     HAL2     0.900000E-01   1.00800           0
       925 MEMB     66       SAPS     C317     CTL2    -0.180000       12.0110           0
       926 MEMB     66       SAPS     H17X     HAL2     0.900000E-01   1.00800           0
       927 MEMB     66       SAPS     H17Y     HAL2     0.900000E-01   1.00800           0
       928 MEMB     66       SAPS     C318     CTL3    -0.270000       12.0110           0
       929 MEMB     66       SAPS     H18X     HAL3     0.900000E-01   1.00800           0
       930 MEMB     66       SAPS     H18Y     HAL3     0.900000E-01   1.00800           0
       931 MEMB     66       SAPS     H18Z     HAL3     0.900000E-01   1.00800           0
       932 MEMB     75       SAPS     N        NH3L    -0.300000       14.0070           0
       933 MEMB     75       SAPS     HN1      HCL      0.330000       1.00800           0
       934 MEMB     75       SAPS     HN2      HCL      0.330000       1.00800           0
       935 MEMB     75       SAPS     HN3      HCL      0.330000       1.00800           0
       936 MEMB     75       SAPS     C12      CTL1     0.210000       12.0110           0
       937 MEMB     75       SAPS     H12A     HBL      0.100000       1.00800           0
       938 MEMB     75       SAPS     C13      CCL      0.340000       12.0110           0
       939 MEMB     75       SAPS     O13A     OCL     -0.670000       15.9994           0
       940 MEMB     75       SAPS     O13B     OCL     -0.670000       15.9994           0
       941 MEMB     75       SAPS     C11      CTL2    -0.800000E-01   12.0110           0
       942 MEMB     75       SAPS     H11A     HAL2     0.900000E-01   1.00800           0
       943 MEMB     75       SAPS     H11B     HAL2     0.900000E-01   1.00800           0
       944 MEMB     75       SAPS     P        PL       1.500000       30.9740           0
       945 MEMB     75       SAPS     O13      O2L     -0.780000       15.9994           0
       946 MEMB     75       SAPS     O14      O2L     -0.780000       15.9994           0
       947 MEMB     75       SAPS     O12      OSLP    -0.570000       15.9994           0
       948 MEMB     75       SAPS     O11      OSLP    -0.570000       15.9994           0
       949 MEMB     75       SAPS     C1       CTL2    -0.800000E-01   12.0110           0
       950 MEMB     75       SAPS     HA       HAL2     0.900000E-01   1.00800           0
       951 MEMB     75       SAPS     HB       HAL2     0.900000E-01   1.00800           0
       952 MEMB     75       SAPS     C2       CTL1     0.170000       12.0110           0
       953 MEMB     75       SAPS     HS       HAL1     0.900000E-01   1.00800           0
       954 MEMB     75       SAPS     O21      OSL     -0.490000       15.9994           0
       955 MEMB     75       SAPS     C21      CL       0.900000       12.0110           0
       956 MEMB     75       SAPS     O22      OBL     -0.630000       15.9994           0
       957 MEMB     75       SAPS     C22      CTL2    -0.220000       12.0110           0
       958 MEMB     75       SAPS     H2R      HAL2     0.900000E-01   1.00800           0
       959 MEMB     75       SAPS     H2S      HAL2     0.900000E-01   1.00800           0
       960 MEMB     75       SAPS     C3       CTL2     0.800000E-01   12.0110           0
       961 MEMB     75       SAPS     HX       HAL2     0.900000E-01   1.00800           0
       962 MEMB     75       SAPS     HY       HAL2     0.900000E-01   1.00800           0
       963 MEMB     75       SAPS     O31      OSL     -0.490000       15.9994           0
       964 MEMB     75       SAPS     C31      CL       0.900000       12.0110           0
       965 MEMB     75       SAPS     O32      OBL     -0.630000       15.9994           0
       966 MEMB     75       SAPS     C32      CTL2    -0.220000       12.0110           0
       967 MEMB     75       SAPS     H2X      HAL2     0.900000E-01   1.00800           0
       968 MEMB     75       SAPS     H2Y      HAL2     0.900000E-01   1.00800           0
       969 MEMB     75       SAPS     C23      CTL2    -0.180000       12.0110           0
       970 MEMB     75       SAPS     H3R      HAL2     0.900000E-01   1.00800           0
       971 MEMB     75       SAPS     H3S      HAL2     0.900000E-01   1.00800           0
       972 MEMB     75       SAPS     C24      CTL2    -0.180000       12.0110           0
       973 MEMB     75       SAPS     H4R      HAL2     0.900000E-01   1.00800           0
       974 MEMB     75       SAPS     H4S      HAL2     0.900000E-01   1.00800           0
       975 MEMB     75       SAPS     C25      CEL1    -0.150000       12.0110           0
       976 MEMB     75       SAPS     H5R      HEL1     0.150000       1.00800           0
       977 MEMB     75       SAPS     C26      CEL1    -0.150000       12.0110           0
       978 MEMB     75       SAPS     H6R      HEL1     0.150000       1.00800           0
       979 MEMB     75       SAPS     C27      CTL2    -0.180000       12.0110           0
       980 MEMB     75       SAPS     H7R      HAL2     0.900000E-01   1.00800           0
       981 MEMB     75       SAPS     H7S      HAL2     0.900000E-01   1.00800           0
       982 MEMB     75       SAPS     C28      CEL1    -0.150000       12.0110           0
       983 MEMB     75       SAPS     H8R      HEL1     0.150000       1.00800           0
       984 MEMB     75       SAPS     C29      CEL1    -0.150000       12.0110           0
       985 MEMB     75       SAPS     H9R      HEL1     0.150000       1.00800           0
       986 MEMB     75       SAPS     C210     CTL2    -0.180000       12.0110           0
       987 MEMB     75       SAPS     H10R     HAL2     0.900000E-01   1.00800           0
       988 MEMB     75       SAPS     H10S     HAL2     0.900000E-01   1.00800           0
       989 MEMB     75       SAPS     C211     CEL1    -0.150000       12.0110           0
       990 MEMB     75       SAPS     H11R     HEL1     0.150000       1.00800           0
       991 MEMB     75       SAPS     C212     CEL1    -0.150000       12.0110           0
       992 MEMB     75       SAPS     H12R     HEL1     0.150000       1.00800           0
       993 MEMB     75       SAPS     C213     CTL2    -0.180000       12.0110           0
       994 MEMB     75       SAPS     H13R     HAL2     0.900000E-01   1.00800           0
       995 MEMB     75       SAPS     H13S     HAL2     0.900000E-01   1.00800           0
       996 MEMB     75       SAPS     C214     CEL1    -0.150000       12.0110           0
       997 MEMB     75       SAPS     H14R     HEL1     0.150000       1.00800           0
       998 MEMB     75       SAPS     C215     CEL1    -0.150000       12.0110           0
       999 MEMB     75       SAPS     H15R     HEL1     0.150000       1.00800           0
      1000 MEMB     75       SAPS     C216     CTL2    -0.180000       12.0110           0
      1001 MEMB     75       SAPS     H16R     HAL2     0.900000E-01   1.00800           0
      1002 MEMB     75       SAPS     H16S     HAL2     0.900000E-01   1.00800           0
      1003 MEMB     75       SAPS     C217     CTL2    -0.180000       12.0110           0
      1004 MEMB     75       SAPS     H17R     HAL2     0.900000E-01   1.00800           0
      1005 MEMB     75       SAPS     H17S     HAL2     0.900000E-01   1.00800           0
      1006 MEMB     75       SAPS     C218     CTL2    -0.180000       12.0110           0
      1007 MEMB     75       SAPS     H18R     HAL2     0.900000E-01   1.00800           0
      1008 MEMB     75       SAPS     H18S     HAL2     0.900000E-01   1.00800           0
      1009 MEMB     75       SAPS     C219     CTL2    -0.180000       12.0110           0
      1010 MEMB     75       SAPS     H19R     HAL2     0.900000E-01   1.00800           0
      1011 MEMB     75       SAPS     H19S     HAL2     0.900000E-01   1.00800           0
      1012 MEMB     75       SAPS     C220     CTL3    -0.270000       12.0110           0
      1013 MEMB     75       SAPS     H20R     HAL3     0.900000E-01   1.00800           0
      1014 MEMB     75       SAPS     H20S     HAL3     0.900000E-01   1.00800           0
      1015 MEMB     75       SAPS     H20T     HAL3     0.900000E-01   1.00800           0
      1016 MEMB     75       SAPS     C33      CTL2    -0.180000       12.0110           0
      1017 MEMB     75       SAPS     H3X      HAL2     0.900000E-01   1.00800           0
      1018 MEMB     75       SAPS     H3Y      HAL2     0.900000E-01   1.00800           0
      1019 MEMB     75       SAPS     C34      CTL2    -0.180000       12.0110           0
      1020 MEMB     75       SAPS     H4X      HAL2     0.900000E-01   1.00800           0
      1021 MEMB     75       SAPS     H4Y      HAL2     0.900000E-01   1.00800           0
      1022 MEMB     75       SAPS     C35      CTL2    -0.180000       12.0110           0
      1023 MEMB     75       SAPS     H5X      HAL2     0.900000E-01   1.00800           0
      1024 MEMB     75       SAPS     H5Y      HAL2     0.900000E-01   1.00800           0
      1025 MEMB     75       SAPS     C36      CTL2    -0.180000       12.0110           0
      1026 MEMB     75       SAPS     H6X      HAL2     0.900000E-01   1.00800           0
      1027 MEMB     75       SAPS     H6Y      HAL2     0.900000E-01   1.00800           0
      1028 MEMB     75       SAPS     C37      CTL2    -0.180000       12.0110           0
      1029 MEMB     75       SAPS     H7X      HAL2     0.900000E-01   1.00800           0
      1030 MEMB     75       SAPS     H7Y      HAL2     0.900000E-01   1.00800           0
      1031 MEMB     75       SAPS     C38      CTL2    -0.180000       12.0110           0
      1032 MEMB     75       SAPS     H8X      HAL2     0.900000E-01   1.00800           0
      1033 MEMB     75       SAPS     H8Y      HAL2     0.900000E-01   1.00800           0
      1034 MEMB     75       SAPS     C39      CTL2    -0.180000       12.0110           0
      1035 MEMB     75       SAPS     H9X      HAL2     0.900000E-01   1.00800           0
      1036 MEMB     75       SAPS     H9Y      HAL2     0.900000E-01   1.00800           0
      1037 MEMB     75       SAPS     C310     CTL2    -0.180000       12.0110           0
      1038 MEMB     75       SAPS     H10X     HAL2     0.900000E-01   1.00800           0
      1039 MEMB     75       SAPS     H10Y     HAL2     0.900000E-01   1.00800           0
      1040 MEMB     75       SAPS     C311     CTL2    -0.180000       12.0110           0
      1041 MEMB     75       SAPS     H11X     HAL2     0.900000E-01   1.00800           0
      1042 MEMB     75       SAPS     H11Y     HAL2     0.900000E-01   1.00800           0
      1043 MEMB     75       SAPS     C312     CTL2    -0.180000       12.0110           0
      1044 MEMB     75       SAPS     H12X     HAL2     0.900000E-01   1.00800           0
      1045 MEMB     75       SAPS     H12Y     HAL2     0.900000E-01   1.00800           0
      1046 MEMB     75       SAPS     C313     CTL2    -0.180000       12.0110           0
      1047 MEMB     75       SAPS     H13X     HAL2     0.900000E-01   1.00800           0
      1048 MEMB     75       SAPS     H13Y     HAL2     0.900000E-01   1.00800           0
      1049 MEMB     75       SAPS     C314     CTL2    -0.180000       12.0110           0
      1050 MEMB     75       SAPS     H14X     HAL2     0.900000E-01   1.00800           0
      1051 MEMB     75       SAPS     H14Y     HAL2     0.900000E-01   1.00800           0
      1052 MEMB     75       SAPS     C315     CTL2    -0.180000       12.0110           0
      1053 MEMB     75       SAPS     H15X     HAL2     0.900000E-01   1.00800           0
      1054 MEMB     75       SAPS     H15Y     HAL2     0.900000E-01   1.00800           0
      1055 MEMB     75       SAPS     C316     CTL2    -0.180000       12.0110           0
      1056 MEMB     75       SAPS     H16X     HAL2     0.900000E-01   1.00800           0
      1057 MEMB     75       SAPS     H16Y     HAL2     0.900000E-01   1.00800           0
      1058 MEMB     75       SAPS     C317     CTL2    -0.180000       12.0110           0
      1059 MEMB     75       SAPS     H17X     HAL2     0.900000E-01   1.00800           0
      1060 MEMB     75       SAPS     H17Y     HAL2     0.900000E-01   1.00800           0
      1061 MEMB     75       SAPS     C318     CTL3    -0.270000       12.0110           0
      1062 MEMB     75       SAPS     H18X     HAL3     0.900000E-01   1.00800           0
      1063 MEMB     75       SAPS     H18Y     HAL3     0.900000E-01   1.00800           0
      1064 MEMB     75       SAPS     H18Z     HAL3     0.900000E-01   1.00800           0
      1065 MEMB     87       SAPS     N        NH3L    -0.300000       14.0070           0
      1066 MEMB     87       SAPS     HN1      HCL      0.330000       1.00800           0
      1067 MEMB     87       SAPS     HN2      HCL      0.330000       1.00800           0
      1068 MEMB     87       SAPS     HN3      HCL      0.330000       1.00800           0
      1069 MEMB     87       SAPS     C12      CTL1     0.210000       12.0110           0
      1070 MEMB     87       SAPS     H12A     HBL      0.100000       1.00800           0
      1071 MEMB     87       SAPS     C13      CCL      0.340000       12.0110           0
      1072 MEMB     87       SAPS     O13A     OCL     -0.670000       15.9994           0
      1073 MEMB     87       SAPS     O13B     OCL     -0.670000       15.9994           0
      1074 MEMB     87       SAPS     C11      CTL2    -0.800000E-01   12.0110           0
      1075 MEMB     87       SAPS     H11A     HAL2     0.900000E-01   1.00800           0
      1076 MEMB     87       SAPS     H11B     HAL2     0.900000E-01   1.00800           0
      1077 MEMB     87       SAPS     P        PL       1.500000       30.9740           0
      1078 MEMB     87       SAPS     O13      O2L     -0.780000       15.9994           0
      1079 MEMB     87       SAPS     O14      O2L     -0.780000       15.9994           0
      1080 MEMB     87       SAPS     O12      OSLP    -0.570000       15.9994           0
      1081 MEMB     87       SAPS     O11      OSLP    -0.570000       15.9994           0
      1082 MEMB     87       SAPS     C1       CTL2    -0.800000E-01   12.0110           0
      1083 MEMB     87       SAPS     HA       HAL2     0.900000E-01   1.00800           0
      1084 MEMB     87       SAPS     HB       HAL2     0.900000E-01   1.00800           0
      1085 MEMB     87       SAPS     C2       CTL1     0.170000       12.0110           0
      1086 MEMB     87       SAPS     HS       HAL1     0.900000E-01   1.00800           0
      1087 MEMB     87       SAPS     O21      OSL     -0.490000       15.9994           0
      1088 MEMB     87       SAPS     C21      CL       0.900000       12.0110           0
      1089 MEMB     87       SAPS     O22      OBL     -0.630000       15.9994           0
      1090 MEMB     87       SAPS     C22      CTL2    -0.220000       12.0110           0
      1091 MEMB     87       SAPS     H2R      HAL2     0.900000E-01   1.00800           0
      1092 MEMB     87       SAPS     H2S      HAL2     0.900000E-01   1.00800           0
      1093 MEMB     87       SAPS     C3       CTL2     0.800000E-01   12.0110           0
      1094 MEMB     87       SAPS     HX       HAL2     0.900000E-01   1.00800           0
      1095 MEMB     87       SAPS     HY       HAL2     0.900000E-01   1.00800           0
      1096 MEMB     87       SAPS     O31      OSL     -0.490000       15.9994           0
      1097 MEMB     87       SAPS     C31      CL       0.900000       12.0110           0
      1098 MEMB     87       SAPS     O32      OBL     -0.630000       15.9994           0
      1099 MEMB     87       SAPS     C32      CTL2    -0.220000       12.0110           0
      1100 MEMB     87       SAPS     H2X      HAL2     0.900000E-01   1.00800           0
      1101 MEMB     87       SAPS     H2Y      HAL2     0.900000E-01   1.00800           0
      1102 MEMB     87       SAPS     C23      CTL2    -0.180000       12.0110           0
      1103 MEMB     87       SAPS     H3R      HAL2     0.900000E-01   1.00800           0
      1104 MEMB     87       SAPS     H3S      HAL2     0.900000E-01   1.00800           0
      1105 MEMB     87       SAPS     C24      CTL2    -0.180000       12.0110           0
      1106 MEMB     87       SAPS     H4R      HAL2     0.900000E-01   1.00800           0
      1107 MEMB     87       SAPS     H4S      HAL2     0.900000E-01   1.00800           0
      1108 MEMB     87       SAPS     C25      CEL1    -0.150000       12.0110           0
      1109 MEMB     87       SAPS     H5R      HEL1     0.150000       1.00800           0
      1110 MEMB     87       SAPS     C26      CEL1    -0.150000       12.0110           0
      1111 MEMB     87       SAPS     H6R      HEL1     0.150000       1.00800           0
      1112 MEMB     87       SAPS     C27      CTL2    -0.180000       12.0110           0
      1113 MEMB     87       SAPS     H7R      HAL2     0.900000E-01   1.00800           0
      1114 MEMB     87       SAPS     H7S      HAL2     0.900000E-01   1.00800           0
      1115 MEMB     87       SAPS     C28      CEL1    -0.150000       12.0110           0
      1116 MEMB     87       SAPS     H8R      HEL1     0.150000       1.00800           0
      1117 MEMB     87       SAPS     C29      CEL1    -0.150000       12.0110           0
      1118 MEMB     87       SAPS     H9R      HEL1     0.150000       1.00800           0
      1119 MEMB     87       SAPS     C210     CTL2    -0.180000       12.0110           0
      1120 MEMB     87       SAPS     H10R     HAL2     0.900000E-01   1.00800           0
      1121 MEMB     87       SAPS     H10S     HAL2     0.900000E-01   1.00800           0
      1122 MEMB     87       SAPS     C211     CEL1    -0.150000       12.0110           0
      1123 MEMB     87       SAPS     H11R     HEL1     0.150000       1.00800           0
      1124 MEMB     87       SAPS     C212     CEL1    -0.150000       12.0110           0
      1125 MEMB     87       SAPS     H12R     HEL1     0.150000       1.00800           0
      1126 MEMB     87       SAPS     C213     CTL2    -0.180000       12.0110           0
      1127 MEMB     87       SAPS     H13R     HAL2     0.900000E-01   1.00800           0
      1128 MEMB     87       SAPS     H13S     HAL2     0.900000E-01   1.00800           0
      1129 MEMB     87       SAPS     C214     CEL1    -0.150000       12.0110           0
      1130 MEMB     87       SAPS     H14R     HEL1     0.150000       1.00800           0
      1131 MEMB     87       SAPS     C215     CEL1    -0.150000       12.0110           0
      1132 MEMB     87       SAPS     H15R     HEL1     0.150000       1.00800           0
      1133 MEMB     87       SAPS     C216     CTL2    -0.180000       12.0110           0
      1134 MEMB     87       SAPS     H16R     HAL2     0.900000E-01   1.00800           0
      1135 MEMB     87       SAPS     H16S     HAL2     0.900000E-01   1.00800           0
      1136 MEMB     87       SAPS     C217     CTL2    -0.180000       12.0110           0
      1137 MEMB     87       SAPS     H17R     HAL2     0.900000E-01   1.00800           0
      1138 MEMB     87       SAPS     H17S     HAL2     0.900000E-01   1.00800           0
      1139 MEMB     87       SAPS     C218     CTL2    -0.180000       12.0110           0
      1140 MEMB     87       SAPS     H18R     HAL2     0.900000E-01   1.00800           0
      1141 MEMB     87       SAPS     H18S     HAL2     0.900000E-01   1.00800           0
      1142 MEMB     87       SAPS     C219     CTL2    -0.180000       12.0110           0
      1143 MEMB     87       SAPS     H19R     HAL2     0.900000E-01   1.00800           0
      1144 MEMB     87       SAPS     H19S     HAL2     0.900000E-01   1.00800           0
      1145 MEMB     87       SAPS     C220     CTL3    -0.270000       12.0110           0
      1146 MEMB     87       SAPS     H20R     HAL3     0.900000E-01   1.00800           0
      1147 MEMB     87       SAPS     H20S     HAL3     0.900000E-01   1.00800           0
      1148 MEMB     87       SAPS     H20T     HAL3     0.900000E-01   1.00800           0
      1149 MEMB     87       SAPS     C33      CTL2    -0.180000       12.0110           0
      1150 MEMB     87       SAPS     H3X      HAL2     0.900000E-01   1.00800           0
      1151 MEMB     87       SAPS     H3Y      HAL2     0.900000E-01   1.00800           0
      1152 MEMB     87       SAPS     C34      CTL2    -0.180000       12.0110           0
      1153 MEMB     87       SAPS     H4X      HAL2     0.900000E-01   1.00800           0
      1154 MEMB     87       SAPS     H4Y      HAL2     0.900000E-01   1.00800           0
      1155 MEMB     87       SAPS     C35      CTL2    -0.180000       12.0110           0
      1156 MEMB     87       SAPS     H5X      HAL2     0.900000E-01   1.00800           0
      1157 MEMB     87       SAPS     H5Y      HAL2     0.900000E-01   1.00800           0
      1158 MEMB     87       SAPS     C36      CTL2    -0.180000       12.0110           0
      1159 MEMB     87       SAPS     H6X      HAL2     0.900000E-01   1.00800           0
      1160 MEMB     87       SAPS     H6Y      HAL2     0.900000E-01   1.00800           0
      1161 MEMB     87       SAPS     C37      CTL2    -0.180000       12.0110           0
      1162 MEMB     87       SAPS     H7X      HAL2     0.900000E-01   1.00800           0
      1163 MEMB     87       SAPS     H7Y      HAL2     0.900000E-01   1.00800           0
      1164 MEMB     87       SAPS     C38      CTL2    -0.180000       12.0110           0
      1165 MEMB     87       SAPS     H8X      HAL2     0.900000E-01   1.00800           0
      1166 MEMB     87       SAPS     H8Y      HAL2     0.900000E-01   1.00800           0
      1167 MEMB     87       SAPS     C39      CTL2    -0.180000       12.0110           0
      1168 MEMB     87       SAPS     H9X      HAL2     0.900000E-01   1.00800           0
      1169 MEMB     87       SAPS     H9Y      HAL2     0.900000E-01   1.00800           0
      1170 MEMB     87       SAPS     C310     CTL2    -0.180000       12.0110           0
      1171 MEMB     87       SAPS     H10X     HAL2     0.900000E-01   1.00800           0
      1172 MEMB     87       SAPS     H10Y     HAL2     0.900000E-01   1.00800           0
      1173 MEMB     87       SAPS     C311     CTL2    -0.180000       12.0110           0
      1174 MEMB     87       SAPS     H11X     HAL2     0.900000E-01   1.00800           0
      1175 MEMB     87       SAPS     H11Y     HAL2     0.900000E-01   1.00800           0
      1176 MEMB     87       SAPS     C312     CTL2    -0.180000       12.0110           0
      1177 MEMB     87       SAPS     H12X     HAL2     0.900000E-01   1.00800           0
      1178 MEMB     87       SAPS     H12Y     HAL2     0.900000E-01   1.00800           0
      1179 MEMB     87       SAPS     C313     CTL2    -0.180000       12.0110           0
      1180 MEMB     87       SAPS     H13X     HAL2     0.900000E-01   1.00800           0
      1181 MEMB     87       SAPS     H13Y     HAL2     0.900000E-01   1.00800           0
      1182 MEMB     87       SAPS     C314     CTL2    -0.180000       12.0110           0
      1183 MEMB     87       SAPS     H14X     HAL2     0.900000E-01   1.00800           0
      1184 MEMB     87       SAPS     H14Y     HAL2     0.900000E-01   1.00800           0
      1185 MEMB     87       SAPS     C315     CTL2    -0.180000       12.0110           0
      1186 MEMB     87       SAPS     H15X     HAL2     0.900000E-01   1.00800           0
      1187 MEMB     87       SAPS     H15Y     HAL2     0.900000E-01   1.00800           0
      1188 MEMB     87       SAPS     C316     CTL2    -0.180000       12.0110           0
      1189 MEMB     87       SAPS     H16X     HAL2     0.900000E-01   1.00800           0
      1190 MEMB     87       SAPS     H16Y     HAL2     0.900000E-01   1.00800           0
      1191 MEMB     87       SAPS     C317     CTL2    -0.180000       12.0110           0
      1192 MEMB     87       SAPS     H17X     HAL2     0.900000E-01   1.00800           0
      1193 MEMB     87       SAPS     H17Y     HAL2     0.900000E-01   1.00800           0
      1194 MEMB     87       SAPS     C318     CTL3    -0.270000       12.0110           0
      1195 MEMB     87       SAPS     H18X     HAL3     0.900000E-01   1.00800           0
      1196 MEMB     87       SAPS     H18Y     HAL3     0.900000E-01   1.00800           0
      1197 MEMB     87       SAPS     H18Z     HAL3     0.900000E-01   1.00800           0
      1198 MEMB     96       SAPS     N        NH3L    -0.300000       14.0070           0
      1199 MEMB     96       SAPS     HN1      HCL      0.330000       1.00800           0
      1200 MEMB     96       SAPS     HN2      HCL      0.330000       1.00800           0
      1201 MEMB     96       SAPS     HN3      HCL      0.330000       1.00800           0
      1202 MEMB     96       SAPS     C12      CTL1     0.210000       12.0110           0
      1203 MEMB     96       SAPS     H12A     HBL      0.100000       1.00800           0
      1204 MEMB     96       SAPS     C13      CCL      0.340000       12.0110           0
      1205 MEMB     96       SAPS     O13A     OCL     -0.670000       15.9994           0
      1206 MEMB     96       SAPS     O13B     OCL     -0.670000       15.9994           0
      1207 MEMB     96       SAPS     C11      CTL2    -0.800000E-01   12.0110           0
      1208 MEMB     96       SAPS     H11A     HAL2     0.900000E-01   1.00800           0
      1209 MEMB     96       SAPS     H11B     HAL2     0.900000E-01   1.00800           0
      1210 MEMB     96       SAPS     P        PL       1.500000       30.9740           0
      1211 MEMB     96       SAPS     O13      O2L     -0.780000       15.9994           0
      1212 MEMB     96       SAPS     O14      O2L     -0.780000       15.9994           0
      1213 MEMB     96       SAPS     O12      OSLP    -0.570000       15.9994           0
      1214 MEMB     96       SAPS     O11      OSLP    -0.570000       15.9994           0
      1215 MEMB     96       SAPS     C1       CTL2    -0.800000E-01   12.0110           0
      1216 MEMB     96       SAPS     HA       HAL2     0.900000E-01   1.00800           0
      1217 MEMB     96       SAPS     HB       HAL2     0.900000E-01   1.00800           0
      1218 MEMB     96       SAPS     C2       CTL1     0.170000       12.0110           0
      1219 MEMB     96       SAPS     HS       HAL1     0.900000E-01   1.00800           0
      1220 MEMB     96       SAPS     O21      OSL     -0.490000       15.9994           0
      1221 MEMB     96       SAPS     C21      CL       0.900000       12.0110           0
      1222 MEMB     96       SAPS     O22      OBL     -0.630000       15.9994           0
      1223 MEMB     96       SAPS     C22      CTL2    -0.220000       12.0110           0
      1224 MEMB     96       SAPS     H2R      HAL2     0.900000E-01   1.00800           0
      1225 MEMB     96       SAPS     H2S      HAL2     0.900000E-01   1.00800           0
      1226 MEMB     96       SAPS     C3       CTL2     0.800000E-01   12.0110           0
      1227 MEMB     96       SAPS     HX       HAL2     0.900000E-01   1.00800           0
      1228 MEMB     96       SAPS     HY       HAL2     0.900000E-01   1.00800           0
      1229 MEMB     96       SAPS     O31      OSL     -0.490000       15.9994           0
      1230 MEMB     96       SAPS     C31      CL       0.900000       12.0110           0
      1231 MEMB     96       SAPS     O32      OBL     -0.630000       15.9994           0
      1232 MEMB     96       SAPS     C32      CTL2    -0.220000       12.0110           0
      1233 MEMB     96       SAPS     H2X      HAL2     0.900000E-01   1.00800           0
      1234 MEMB     96       SAPS     H2Y      HAL2     0.900000E-01   1.00800           0
      1235 MEMB     96       SAPS     C23      CTL2    -0.180000       12.0110           0
      1236 MEMB     96       SAPS     H3R      HAL2     0.900000E-01   1.00800           0
      1237 MEMB     96       SAPS     H3S      HAL2     0.900000E-01   1.00800           0
      1238 MEMB     96       SAPS     C24      CTL2    -0.180000       12.0110           0
      1239 MEMB     96       SAPS     H4R      HAL2     0.900000E-01   1.00800           0
      1240 MEMB     96       SAPS     H4S      HAL2     0.900000E-01   1.00800           0
      1241 MEMB     96       SAPS     C25      CEL1    -0.150000       12.0110           0
      1242 MEMB     96       SAPS     H5R      HEL1     0.150000       1.00800           0
      1243 MEMB     96       SAPS     C26      CEL1    -0.150000       12.0110           0
      1244 MEMB     96       SAPS     H6R      HEL1     0.150000       1.00800           0
      1245 MEMB     96       SAPS     C27      CTL2    -0.180000       12.0110           0
      1246 MEMB     96       SAPS     H7R      HAL2     0.900000E-01   1.00800           0
      1247 MEMB     96       SAPS     H7S      HAL2     0.900000E-01   1.00800           0
      1248 MEMB     96       SAPS     C28      CEL1    -0.150000       12.0110           0
      1249 MEMB     96       SAPS     H8R      HEL1     0.150000       1.00800           0
      1250 MEMB     96       SAPS     C29      CEL1    -0.150000       12.0110           0
      1251 MEMB     96       SAPS     H9R      HEL1     0.150000       1.00800           0
      1252 MEMB     96       SAPS     C210     CTL2    -0.180000       12.0110           0
      1253 MEMB     96       SAPS     H10R     HAL2     0.900000E-01   1.00800           0
      1254 MEMB     96       SAPS     H10S     HAL2     0.900000E-01   1.00800           0
      1255 MEMB     96       SAPS     C211     CEL1    -0.150000       12.0110           0
      1256 MEMB     96       SAPS     H11R     HEL1     0.150000       1.00800           0
      1257 MEMB     96       SAPS     C212     CEL1    -0.150000       12.0110           0
      1258 MEMB     96       SAPS     H12R     HEL1     0.150000       1.00800           0
      1259 MEMB     96       SAPS     C213     CTL2    -0.180000       12.0110           0
      1260 MEMB     96       SAPS     H13R     HAL2     0.900000E-01   1.00800           0
      1261 MEMB     96       SAPS     H13S     HAL2     0.900000E-01   1.00800           0
      1262 MEMB     96       SAPS     C214     CEL1    -0.150000       12.0110           0
      1263 MEMB     96       SAPS     H14R     HEL1     0.150000       1.00800           0
      1264 MEMB     96       SAPS     C215     CEL1    -0.150000       12.0110           0
      1265 MEMB     96       SAPS     H15R     HEL1     0.150000       1.00800           0
      1266 MEMB     96       SAPS     C216     CTL2    -0.180000       12.0110           0
      1267 MEMB     96       SAPS     H16R     HAL2     0.900000E-01   1.00800           0
      1268 MEMB     96       SAPS     H16S     HAL2     0.900000E-01   1.00800           0
      1269 MEMB     96       SAPS     C217     CTL2    -0.180000       12.0110           0
      1270 MEMB     96       SAPS     H17R     HAL2     0.900000E-01   1.00800           0
      1271 MEMB     96       SAPS     H17S     HAL2     0.900000E-01   1.00800           0
      1272 MEMB     96       SAPS     C218     CTL2    -0.180000       12.0110           0
      1273 MEMB     96       SAPS     H18R     HAL2     0.900000E-01   1.00800           0
      1274 MEMB     96       SAPS     H18S     HAL2     0.900000E-01   1.00800           0
      1275 MEMB     96       SAPS     C219     CTL2    -0.180000       12.0110           0
      1276 MEMB     96       SAPS     H19R     HAL2     0.900000E-01   1.00800           0
      1277 MEMB     96       SAPS     H19S     HAL2     0.900000E-01   1.00800           0
      1278 MEMB     96       SAPS     C220     CTL3    -0.270000       12.0110           0
      1279 MEMB     96       SAPS     H20R     HAL3     0.900000E-01   1.00800           0
      1280 MEMB     96       SAPS     H20S     HAL3     0.900000E-01   1.00800           0
      1281 MEMB     96       SAPS     H20T     HAL3     0.900000E-01   1.00800           0
      1282 MEMB     96       SAPS     C33      CTL2    -0.180000       12.0110           0
      1283 MEMB     96       SAPS     H3X      HAL2     0.900000E-01   1.00800           0
      1284 MEMB     96       SAPS     H3Y      HAL2     0.900000E-01   1.00800           0
      1285 MEMB     96       SAPS     C34      CTL2    -0.180000       12.0110           0
      1286 MEMB     96       SAPS     H4X      HAL2     0.900000E-01   1.00800           0
      1287 MEMB     96       SAPS     H4Y      HAL2     0.900000E-01   1.00800           0
      1288 MEMB     96       SAPS     C35      CTL2    -0.180000       12.0110           0
      1289 MEMB     96       SAPS     H5X      HAL2     0.900000E-01   1.00800           0
      1290 MEMB     96       SAPS     H5Y      HAL2     0.900000E-01   1.00800           0
      1291 MEMB     96       SAPS     C36      CTL2    -0.180000       12.0110           0
      1292 MEMB     96       SAPS     H6X      HAL2     0.900000E-01   1.00800           0
      1293 MEMB     96       SAPS     H6Y      HAL2     0.900000E-01   1.00800           0
      1294 MEMB     96       SAPS     C37      CTL2    -0.180000       12.0110           0
      1295 MEMB     96       SAPS     H7X      HAL2     0.900000E-01   1.00800           0
      1296 MEMB     96       SAPS     H7Y      HAL2     0.900000E-01   1.00800           0
      1297 MEMB     96       SAPS     C38      CTL2    -0.180000       12.0110           0
      1298 MEMB     96       SAPS     H8X      HAL2     0.900000E-01   1.00800           0
      1299 MEMB     96       SAPS     H8Y      HAL2     0.900000E-01   1.00800           0
      1300 MEMB     96       SAPS     C39      CTL2    -0.180000       12.0110           0
      1301 MEMB     96       SAPS     H9X      HAL2     0.900000E-01   1.00800           0
      1302 MEMB     96       SAPS     H9Y      HAL2     0.900000E-01   1.00800           0
      1303 MEMB     96       SAPS     C310     CTL2    -0.180000       12.0110           0
      1304 MEMB     96       SAPS     H10X     HAL2     0.900000E-01   1.00800           0
      1305 MEMB     96       SAPS     H10Y     HAL2     0.900000E-01   1.00800           0
      1306 MEMB     96       SAPS     C311     CTL2    -0.180000       12.0110           0
      1307 MEMB     96       SAPS     H11X     HAL2     0.900000E-01   1.00800           0
      1308 MEMB     96       SAPS     H11Y     HAL2     0.900000E-01   1.00800           0
      1309 MEMB     96       SAPS     C312     CTL2    -0.180000       12.0110           0
      1310 MEMB     96       SAPS     H12X     HAL2     0.900000E-01   1.00800           0
      1311 MEMB     96       SAPS     H12Y     HAL2     0.900000E-01   1.00800           0
      1312 MEMB     96       SAPS     C313     CTL2    -0.180000       12.0110           0
      1313 MEMB     96       SAPS     H13X     HAL2     0.900000E-01   1.00800           0
      1314 MEMB     96       SAPS     H13Y     HAL2     0.900000E-01   1.00800           0
      1315 MEMB     96       SAPS     C314     CTL2    -0.180000       12.0110           0
      1316 MEMB     96       SAPS     H14X     HAL2     0.900000E-01   1.00800           0
      1317 MEMB     96       SAPS     H14Y     HAL2     0.900000E-01   1.00800           0
      1318 MEMB     96       SAPS     C315     CTL2    -0.180000       12.0110           0
      1319 MEMB     96       SAPS     H15X     HAL2     0.900000E-01   1.00800           0
      1320 MEMB     96       SAPS     H15Y     HAL2     0.900000E-01   1.00800           0
      1321 MEMB     96       SAPS     C316     CTL2    -0.180000       12.0110           0
      1322 MEMB     96       SAPS     H16X     HAL2     0.900000E-01   1.00800           0
      1323 MEMB     96       SAPS     H16Y     HAL2     0.900000E-01   1.00800           0
      1324 MEMB     96       SAPS     C317     CTL2    -0.180000       12.0110           0
      1325 MEMB     96       SAPS     H17X     HAL2     0.900000E-01   1.00800           0
      1326 MEMB     96       SAPS     H17Y     HAL2     0.900000E-01   1.00800           0
      1327 MEMB     96       SAPS     C318     CTL3    -0.270000       12.0110           0
      1328 MEMB     96       SAPS     H18X     HAL3     0.900000E-01   1.00800           0
      1329 MEMB     96       SAPS     H18Y     HAL3     0.900000E-01   1.00800           0
      1330 MEMB     96       SAPS     H18Z     HAL3     0.900000E-01   1.00800           0
      1331 MEMB     99       SAPS     N        NH3L    -0.300000       14.0070           0
      1332 MEMB     99       SAPS     HN1      HCL      0.330000       1.00800           0
      1333 MEMB     99       SAPS     HN2      HCL      0.330000       1.00800           0
      1334 MEMB     99       SAPS     HN3      HCL      0.330000       1.00800           0
      1335 MEMB     99       SAPS     C12      CTL1     0.210000       12.0110           0
      1336 MEMB     99       SAPS     H12A     HBL      0.100000       1.00800           0
      1337 MEMB     99       SAPS     C13      CCL      0.340000       12.0110           0
      1338 MEMB     99       SAPS     O13A     OCL     -0.670000       15.9994           0
      1339 MEMB     99       SAPS     O13B     OCL     -0.670000       15.9994           0
      1340 MEMB     99       SAPS     C11      CTL2    -0.800000E-01   12.0110           0
      1341 MEMB     99       SAPS     H11A     HAL2     0.900000E-01   1.00800           0
      1342 MEMB     99       SAPS     H11B     HAL2     0.900000E-01   1.00800           0
      1343 MEMB     99       SAPS     P        PL       1.500000       30.9740           0
      1344 MEMB     99       SAPS     O13      O2L     -0.780000       15.9994           0
      1345 MEMB     99       SAPS     O14      O2L     -0.780000       15.9994           0
      1346 MEMB     99       SAPS     O12      OSLP    -0.570000       15.9994           0
      1347 MEMB     99       SAPS     O11      OSLP    -0.570000       15.9994           0
      1348 MEMB     99       SAPS     C1       CTL2    -0.800000E-01   12.0110           0
      1349 MEMB     99       SAPS     HA       HAL2     0.900000E-01   1.00800           0
      1350 MEMB     99       SAPS     HB       HAL2     0.900000E-01   1.00800           0
      1351 MEMB     99       SAPS     C2       CTL1     0.170000       12.0110           0
      1352 MEMB     99       SAPS     HS       HAL1     0.900000E-01   1.00800           0
      1353 MEMB     99       SAPS     O21      OSL     -0.490000       15.9994           0
      1354 MEMB     99       SAPS     C21      CL       0.900000       12.0110           0
      1355 MEMB     99       SAPS     O22      OBL     -0.630000       15.9994           0
      1356 MEMB     99       SAPS     C22      CTL2    -0.220000       12.0110           0
      1357 MEMB     99       SAPS     H2R      HAL2     0.900000E-01   1.00800           0
      1358 MEMB     99       SAPS     H2S      HAL2     0.900000E-01   1.00800           0
      1359 MEMB     99       SAPS     C3       CTL2     0.800000E-01   12.0110           0
      1360 MEMB     99       SAPS     HX       HAL2     0.900000E-01   1.00800           0
      1361 MEMB     99       SAPS     HY       HAL2     0.900000E-01   1.00800           0
      1362 MEMB     99       SAPS     O31      OSL     -0.490000       15.9994           0
      1363 MEMB     99       SAPS     C31      CL       0.900000       12.0110           0
      1364 MEMB     99       SAPS     O32      OBL     -0.630000       15.9994           0
      1365 MEMB     99       SAPS     C32      CTL2    -0.220000       12.0110           0
      1366 MEMB     99       SAPS     H2X      HAL2     0.900000E-01   1.00800           0
      1367 MEMB     99       SAPS     H2Y      HAL2     0.900000E-01   1.00800           0
      1368 MEMB     99       SAPS     C23      CTL2    -0.180000       12.0110           0
      1369 MEMB     99       SAPS     H3R      HAL2     0.900000E-01   1.00800           0
      1370 MEMB     99       SAPS     H3S      HAL2     0.900000E-01   1.00800           0
      1371 MEMB     99       SAPS     C24      CTL2    -0.180000       12.0110           0
      1372 MEMB     99       SAPS     H4R      HAL2     0.900000E-01   1.00800           0
      1373 MEMB     99       SAPS     H4S      HAL2     0.900000E-01   1.00800           0
      1374 MEMB     99       SAPS     C25      CEL1    -0.150000       12.0110           0
      1375 MEMB     99       SAPS     H5R      HEL1     0.150000       1.00800           0
      1376 MEMB     99       SAPS     C26      CEL1    -0.150000       12.0110           0
      1377 MEMB     99       SAPS     H6R      HEL1     0.150000       1.00800           0
      1378 MEMB     99       SAPS     C27      CTL2    -0.180000       12.0110           0
      1379 MEMB     99       SAPS     H7R      HAL2     0.900000E-01   1.00800           0
      1380 MEMB     99       SAPS     H7S      HAL2     0.900000E-01   1.00800           0
      1381 MEMB     99       SAPS     C28      CEL1    -0.150000       12.0110           0
      1382 MEMB     99       SAPS     H8R      HEL1     0.150000       1.00800           0
      1383 MEMB     99       SAPS     C29      CEL1    -0.150000       12.0110           0
      1384 MEMB     99       SAPS     H9R      HEL1     0.150000       1.00800           0
      1385 MEMB     99       SAPS     C210     CTL2    -0.180000       12.0110           0
      1386 MEMB     99       SAPS     H10R     HAL2     0.900000E-01   1.00800           0
      1387 MEMB     99       SAPS     H10S     HAL2     0.900000E-01   1.00800           0
      1388 MEMB     99       SAPS     C211     CEL1    -0.150000       12.0110           0
      1389 MEMB     99       SAPS     H11R     HEL1     0.150000       1.00800           0
      1390 MEMB     99       SAPS     C212     CEL1    -0.150000       12.0110           0
      1391 MEMB     99       SAPS     H12R     HEL1     0.150000       1.00800           0
      1392 MEMB     99       SAPS     C213     CTL2    -0.180000       12.0110           0
      1393 MEMB     99       SAPS     H13R     HAL2     0.900000E-01   1.00800           0
      1394 MEMB     99       SAPS     H13S     HAL2     0.900000E-01   1.00800           0
      1395 MEMB     99       SAPS     C214     CEL1    -0.150000       12.0110           0
      1396 MEMB     99       SAPS     H14R     HEL1     0.150000       1.00800           0
      1397 MEMB     99       SAPS     C215     CEL1    -0.150000       12.0110           0
      1398 MEMB     99       SAPS     H15R     HEL1     0.150000       1.00800           0
      1399 MEMB     99       SAPS     C216     CTL2    -0.180000       12.0110           0
      1400 MEMB     99       SAPS     H16R     HAL2     0.900000E-01   1.00800           0
      1401 MEMB     99       SAPS     H16S     HAL2     0.900000E-01   1.00800           0
      1402 MEMB     99       SAPS     C217     CTL2    -0.180000       12.0110           0
      1403 MEMB     99       SAPS     H17R     HAL2     0.900000E-01   1.00800           0
      1404 MEMB     99       SAPS     H17S     HAL2     0.900000E-01   1.00800           0
      1405 MEMB     99       SAPS     C218     CTL2    -0.180000       12.0110           0
      1406 MEMB     99       SAPS     H18R     HAL2     0.900000E-01   1.00800           0
      1407 MEMB     99       SAPS     H18S     HAL2     0.900000E-01   1.00800           0
      1408 MEMB     99       SAPS     C219     CTL2    -0.180000       12.0110           0
      1409 MEMB     99       SAPS     H19R     HAL2     0.900000E-01   1.00800           0
      1410 MEMB     99       SAPS     H19S     HAL2     0.900000E-01   1.00800           0
      1411 MEMB     99       SAPS     C220     CTL3    -0.270000       12.0110           0
      1412 MEMB     99       SAPS     H20R     HAL3     0.900000E-01   1.00800           0
      1413 MEMB     99       SAPS     H20S     HAL3     0.900000E-01   1.00800           0
      1414 MEMB     99       SAPS     H20T     HAL3     0.900000E-01   1.00800           0
      1415 MEMB     99       SAPS     C33      CTL2    -0.180000       12.0110           0
      1416 MEMB     99       SAPS     H3X      HAL2     0.900000E-01   1.00800           0
      1417 MEMB     99       SAPS     H3Y      HAL2     0.900000E-01   1.00800           0
      1418 MEMB     99       SAPS     C34      CTL2    -0.180000       12.0110           0
      1419 MEMB     99       SAPS     H4X      HAL2     0.900000E-01   1.00800           0
      1420 MEMB     99       SAPS     H4Y      HAL2     0.900000E-01   1.00800           0
      1421 MEMB     99       SAPS     C35      CTL2    -0.180000       12.0110           0
      1422 MEMB     99       SAPS     H5X      HAL2     0.900000E-01   1.00800           0
      1423 MEMB     99       SAPS     H5Y      HAL2     0.900000E-01   1.00800           0
      1424 MEMB     99       SAPS     C36      CTL2    -0.180000       12.0110           0
      1425 MEMB     99       SAPS     H6X      HAL2     0.900000E-01   1.00800           0
      1426 MEMB     99       SAPS     H6Y      HAL2     0.900000E-01   1.00800           0
      1427 MEMB     99       SAPS     C37      CTL2    -0.180000       12.0110           0
      1428 MEMB     99       SAPS     H7X      HAL2     0.900000E-01   1.00800           0
      1429 MEMB     99       SAPS     H7Y      HAL2     0.900000E-01   1.00800           0
      1430 MEMB     99       SAPS     C38      CTL2    -0.180000       12.0110           0
      1431 MEMB     99       SAPS     H8X      HAL2     0.900000E-01   1.00800           0
      1432 MEMB     99       SAPS     H8Y      HAL2     0.900000E-01   1.00800           0
      1433 MEMB     99       SAPS     C39      CTL2    -0.180000       12.0110           0
      1434 MEMB     99       SAPS     H9X      HAL2     0.900000E-01   1.00800           0
      1435 MEMB     99       SAPS     H9Y      HAL2     0.900000E-01   1.00800           0
      1436 MEMB     99       SAPS     C310     CTL2    -0.180000       12.0110           0
      1437 MEMB     99       SAPS     H10X     HAL2     0.900000E-01   1.00800           0
      1438 MEMB     99       SAPS     H10Y     HAL2     0.900000E-01   1.00800           0
      1439 MEMB     99       SAPS     C311     CTL2    -0.180000       12.0110           0
      1440 MEMB     99       SAPS     H11X     HAL2     0.900000E-01   1.00800           0
      1441 MEMB     99       SAPS     H11Y     HAL2     0.900000E-01   1.00800           0
      1442 MEMB     99       SAPS     C312     CTL2    -0.180000       12.0110           0
      1443 MEMB     99       SAPS     H12X     HAL2     0.900000E-01   1.00800           0
      1444 MEMB     99       SAPS     H12Y     HAL2     0.900000E-01   1.00800           0
      1445 MEMB     99       SAPS     C313     CTL2    -0.180000       12.0110           0
      1446 MEMB     99       SAPS     H13X     HAL2     0.900000E-01   1.00800           0
      1447 MEMB     99       SAPS     H13Y     HAL2     0.900000E-01   1.00800           0
      1448 MEMB     99       SAPS     C314     CTL2    -0.180000       12.0110           0
      1449 MEMB     99       SAPS     H14X     HAL2     0.900000E-01   1.00800           0
      1450 MEMB     99       SAPS     H14Y     HAL2     0.900000E-01   1.00800           0
      1451 MEMB     99       SAPS     C315     CTL2    -0.180000       12.0110           0
      1452 MEMB     99       SAPS     H15X     HAL2     0.900000E-01   1.00800           0
      1453 MEMB     99       SAPS     H15Y     HAL2     0.900000E-01   1.00800           0
      1454 MEMB     99       SAPS     C316     CTL2    -0.180000       12.0110           0
      1455 MEMB     99       SAPS     H16X     HAL2     0.900000E-01   1.00800           0
      1456 MEMB     99       SAPS     H16Y     HAL2     0.900000E-01   1.00800           0
      1457 MEMB     99       SAPS     C317     CTL2    -0.180000       12.0110           0
      1458 MEMB     99       SAPS     H17X     HAL2     0.900000E-01   1.00800           0
      1459 MEMB     99       SAPS     H17Y     HAL2     0.900000E-01   1.00800           0
      1460 MEMB     99       SAPS     C318     CTL3    -0.270000       12.0110           0
      1461 MEMB     99       SAPS     H18X     HAL3     0.900000E-01   1.00800           0
      1462 MEMB     99       SAPS     H18Y     HAL3     0.900000E-01   1.00800           0
      1463 MEMB     99       SAPS     H18Z     HAL3     0.900000E-01   1.00800           0
      1464 MEMB     104      SAPS     N        NH3L    -0.300000       14.0070           0
      1465 MEMB     104      SAPS     HN1      HCL      0.330000       1.00800           0
      1466 MEMB     104      SAPS     HN2      HCL      0.330000       1.00800           0
      1467 MEMB     104      SAPS     HN3      HCL      0.330000       1.00800           0
      1468 MEMB     104      SAPS     C12      CTL1     0.210000       12.0110           0
      1469 MEMB     104      SAPS     H12A     HBL      0.100000       1.00800           0
      1470 MEMB     104      SAPS     C13      CCL      0.340000       12.0110           0
      1471 MEMB     104      SAPS     O13A     OCL     -0.670000       15.9994           0
      1472 MEMB     104      SAPS     O13B     OCL     -0.670000       15.9994           0
      1473 MEMB     104      SAPS     C11      CTL2    -0.800000E-01   12.0110           0
      1474 MEMB     104      SAPS     H11A     HAL2     0.900000E-01   1.00800           0
      1475 MEMB     104      SAPS     H11B     HAL2     0.900000E-01   1.00800           0
      1476 MEMB     104      SAPS     P        PL       1.500000       30.9740           0
      1477 MEMB     104      SAPS     O13      O2L     -0.780000       15.9994           0
      1478 MEMB     104      SAPS     O14      O2L     -0.780000       15.9994           0
      1479 MEMB     104      SAPS     O12      OSLP    -0.570000       15.9994           0
      1480 MEMB     104      SAPS     O11      OSLP    -0.570000       15.9994           0
      1481 MEMB     104      SAPS     C1       CTL2    -0.800000E-01   12.0110           0
      1482 MEMB     104      SAPS     HA       HAL2     0.900000E-01   1.00800           0
      1483 MEMB     104      SAPS     HB       HAL2     0.900000E-01   1.00800           0
      1484 MEMB     104      SAPS     C2       CTL1     0.170000       12.0110           0
      1485 MEMB     104      SAPS     HS       HAL1     0.900000E-01   1.00800           0
      1486 MEMB     104      SAPS     O21      OSL     -0.490000       15.9994           0
      1487 MEMB     104      SAPS     C21      CL       0.900000       12.0110           0
      1488 MEMB     104      SAPS     O22      OBL     -0.630000       15.9994           0
      1489 MEMB     104      SAPS     C22      CTL2    -0.220000       12.0110           0
      1490 MEMB     104      SAPS     H2R      HAL2     0.900000E-01   1.00800           0
      1491 MEMB     104      SAPS     H2S      HAL2     0.900000E-01   1.00800           0
      1492 MEMB     104      SAPS     C3       CTL2     0.800000E-01   12.0110           0
      1493 MEMB     104      SAPS     HX       HAL2     0.900000E-01   1.00800           0
      1494 MEMB     104      SAPS     HY       HAL2     0.900000E-01   1.00800           0
      1495 MEMB     104      SAPS     O31      OSL     -0.490000       15.9994           0
      1496 MEMB     104      SAPS     C31      CL       0.900000       12.0110           0
      1497 MEMB     104      SAPS     O32      OBL     -0.630000       15.9994           0
      1498 MEMB     104      SAPS     C32      CTL2    -0.220000       12.0110           0
      1499 MEMB     104      SAPS     H2X      HAL2     0.900000E-01   1.00800           0
      1500 MEMB     104      SAPS     H2Y      HAL2     0.900000E-01   1.00800           0
      1501 MEMB     104      SAPS     C23      CTL2    -0.180000       12.0110           0
      1502 MEMB     104      SAPS     H3R      HAL2     0.900000E-01   1.00800           0
      1503 MEMB     104      SAPS     H3S      HAL2     0.900000E-01   1.00800           0
      1504 MEMB     104      SAPS     C24      CTL2    -0.180000       12.0110           0
      1505 MEMB     104      SAPS     H4R      HAL2     0.900000E-01   1.00800           0
      1506 MEMB     104      SAPS     H4S      HAL2     0.900000E-01   1.00800           0
      1507 MEMB     104      SAPS     C25      CEL1    -0.150000       12.0110           0
      1508 MEMB     104      SAPS     H5R      HEL1     0.150000       1.00800           0
      1509 MEMB     104      SAPS     C26      CEL1    -0.150000       12.0110           0
      1510 MEMB     104      SAPS     H6R      HEL1     0.150000       1.00800           0
      1511 MEMB     104      SAPS     C27      CTL2    -0.180000       12.0110           0
      1512 MEMB     104      SAPS     H7R      HAL2     0.900000E-01   1.00800           0
      1513 MEMB     104      SAPS     H7S      HAL2     0.900000E-01   1.00800           0
      1514 MEMB     104      SAPS     C28      CEL1    -0.150000       12.0110           0
      1515 MEMB     104      SAPS     H8R      HEL1     0.150000       1.00800           0
      1516 MEMB     104      SAPS     C29      CEL1    -0.150000       12.0110           0
      1517 MEMB     104      SAPS     H9R      HEL1     0.150000       1.00800           0
      1518 MEMB     104      SAPS     C210     CTL2    -0.180000       12.0110           0
      1519 MEMB     104      SAPS     H10R     HAL2     0.900000E-01   1.00800           0
      1520 MEMB     104      SAPS     H10S     HAL2     0.900000E-01   1.00800           0
      1521 MEMB     104      SAPS     C211     CEL1    -0.150000       12.0110           0
      1522 MEMB     104      SAPS     H11R     HEL1     0.150000       1.00800           0
      1523 MEMB     104      SAPS     C212     CEL1    -0.150000       12.0110           0
      1524 MEMB     104      SAPS     H12R     HEL1     0.150000       1.00800           0
      1525 MEMB     104      SAPS     C213     CTL2    -0.180000       12.0110           0
      1526 MEMB     104      SAPS     H13R     HAL2     0.900000E-01   1.00800           0
      1527 MEMB     104      SAPS     H13S     HAL2     0.900000E-01   1.00800           0
      1528 MEMB     104      SAPS     C214     CEL1    -0.150000       12.0110           0
      1529 MEMB     104      SAPS     H14R     HEL1     0.150000       1.00800           0
      1530 MEMB     104      SAPS     C215     CEL1    -0.150000       12.0110           0
      1531 MEMB     104      SAPS     H15R     HEL1     0.150000       1.00800           0
      1532 MEMB     104      SAPS     C216     CTL2    -0.180000       12.0110           0
      1533 MEMB     104      SAPS     H16R     HAL2     0.900000E-01   1.00800           0
      1534 MEMB     104      SAPS     H16S     HAL2     0.900000E-01   1.00800           0
      1535 MEMB     104      SAPS     C217     CTL2    -0.180000       12.0110           0
      1536 MEMB     104      SAPS     H17R     HAL2     0.900000E-01   1.00800           0
      1537 MEMB     104      SAPS     H17S     HAL2     0.900000E-01   1.00800           0
      1538 MEMB     104      SAPS     C218     CTL2    -0.180000       12.0110           0
      1539 MEMB     104      SAPS     H18R     HAL2     0.900000E-01   1.00800           0
      1540 MEMB     104      SAPS     H18S     HAL2     0.900000E-01   1.00800           0
      1541 MEMB     104      SAPS     C219     CTL2    -0.180000       12.0110           0
      1542 MEMB     104      SAPS     H19R     HAL2     0.900000E-01   1.00800           0
      1543 MEMB     104      SAPS     H19S     HAL2     0.900000E-01   1.00800           0
      1544 MEMB     104      SAPS     C220     CTL3    -0.270000       12.0110           0
      1545 MEMB     104      SAPS     H20R     HAL3     0.900000E-01   1.00800           0
      1546 MEMB     104      SAPS     H20S     HAL3     0.900000E-01   1.00800           0
      1547 MEMB     104      SAPS     H20T     HAL3     0.900000E-01   1.00800           0
      1548 MEMB     104      SAPS     C33      CTL2    -0.180000       12.0110           0
      1549 MEMB     104      SAPS     H3X      HAL2     0.900000E-01   1.00800           0
      1550 MEMB     104      SAPS     H3Y      HAL2     0.900000E-01   1.00800           0
      1551 MEMB     104      SAPS     C34      CTL2    -0.180000       12.0110           0
      1552 MEMB     104      SAPS     H4X      HAL2     0.900000E-01   1.00800           0
      1553 MEMB     104      SAPS     H4Y      HAL2     0.900000E-01   1.00800           0
      1554 MEMB     104      SAPS     C35      CTL2    -0.180000       12.0110           0
      1555 MEMB     104      SAPS     H5X      HAL2     0.900000E-01   1.00800           0
      1556 MEMB     104      SAPS     H5Y      HAL2     0.900000E-01   1.00800           0
      1557 MEMB     104      SAPS     C36      CTL2    -0.180000       12.0110           0
      1558 MEMB     104      SAPS     H6X      HAL2     0.900000E-01   1.00800           0
      1559 MEMB     104      SAPS     H6Y      HAL2     0.900000E-01   1.00800           0
      1560 MEMB     104      SAPS     C37      CTL2    -0.180000       12.0110           0
      1561 MEMB     104      SAPS     H7X      HAL2     0.900000E-01   1.00800           0
      1562 MEMB     104      SAPS     H7Y      HAL2     0.900000E-01   1.00800           0
      1563 MEMB     104      SAPS     C38      CTL2    -0.180000       12.0110           0
      1564 MEMB     104      SAPS     H8X      HAL2     0.900000E-01   1.00800           0
      1565 MEMB     104      SAPS     H8Y      HAL2     0.900000E-01   1.00800           0
      1566 MEMB     104      SAPS     C39      CTL2    -0.180000       12.0110           0
      1567 MEMB     104      SAPS     H9X      HAL2     0.900000E-01   1.00800           0
      1568 MEMB     104      SAPS     H9Y      HAL2     0.900000E-01   1.00800           0
      1569 MEMB     104      SAPS     C310     CTL2    -0.180000       12.0110           0
      1570 MEMB     104      SAPS     H10X     HAL2     0.900000E-01   1.00800           0
      1571 MEMB     104      SAPS     H10Y     HAL2     0.900000E-01   1.00800           0
      1572 MEMB     104      SAPS     C311     CTL2    -0.180000       12.0110           0
      1573 MEMB     104      SAPS     H11X     HAL2     0.900000E-01   1.00800           0
      1574 MEMB     104      SAPS     H11Y     HAL2     0.900000E-01   1.00800           0
      1575 MEMB     104      SAPS     C312     CTL2    -0.180000       12.0110           0
      1576 MEMB     104      SAPS     H12X     HAL2     0.900000E-01   1.00800           0
      1577 MEMB     104      SAPS     H12Y     HAL2     0.900000E-01   1.00800           0
      1578 MEMB     104      SAPS     C313     CTL2    -0.180000       12.0110           0
      1579 MEMB     104      SAPS     H13X     HAL2     0.900000E-01   1.00800           0
      1580 MEMB     104      SAPS     H13Y     HAL2     0.900000E-01   1.00800           0
      1581 MEMB     104      SAPS     C314     CTL2    -0.180000       12.0110           0
      1582 MEMB     104      SAPS     H14X     HAL2     0.900000E-01   1.00800           0
      1583 MEMB     104      SAPS     H14Y     HAL2     0.900000E-01   1.00800           0
      1584 MEMB     104      SAPS     C315     CTL2    -0.180000       12.0110           0
      1585 MEMB     104      SAPS     H15X     HAL2     0.900000E-01   1.00800           0
      1586 MEMB     104      SAPS     H15Y     HAL2     0.900000E-01   1.00800           0
      1587 MEMB     104      SAPS     C316     CTL2    -0.180000       12.0110           0
      1588 MEMB     104      SAPS     H16X     HAL2     0.900000E-01   1.00800           0
      1589 MEMB     104      SAPS     H16Y     HAL2     0.900000E-01   1.00800           0
      1590 MEMB     104      SAPS     C317     CTL2    -0.180000       12.0110           0
      1591 MEMB     104      SAPS     H17X     HAL2     0.900000E-01   1.00800           0
      1592 MEMB     104      SAPS     H17Y     HAL2     0.900000E-01   1.00800           0
      1593 MEMB     104      SAPS     C318     CTL3    -0.270000       12.0110           0
      1594 MEMB     104      SAPS     H18X     HAL3     0.900000E-01   1.00800           0
      1595 MEMB     104      SAPS     H18Y     HAL3     0.900000E-01   1.00800           0
      1596 MEMB     104      SAPS     H18Z     HAL3     0.900000E-01   1.00800           0
      1597 MEMB     115      SAPS     N        NH3L    -0.300000       14.0070           0
      1598 MEMB     115      SAPS     HN1      HCL      0.330000       1.00800           0
      1599 MEMB     115      SAPS     HN2      HCL      0.330000       1.00800           0
      1600 MEMB     115      SAPS     HN3      HCL      0.330000       1.00800           0
      1601 MEMB     115      SAPS     C12      CTL1     0.210000       12.0110           0
      1602 MEMB     115      SAPS     H12A     HBL      0.100000       1.00800           0
      1603 MEMB     115      SAPS     C13      CCL      0.340000       12.0110           0
      1604 MEMB     115      SAPS     O13A     OCL     -0.670000       15.9994           0
      1605 MEMB     115      SAPS     O13B     OCL     -0.670000       15.9994           0
      1606 MEMB     115      SAPS     C11      CTL2    -0.800000E-01   12.0110           0
      1607 MEMB     115      SAPS     H11A     HAL2     0.900000E-01   1.00800           0
      1608 MEMB     115      SAPS     H11B     HAL2     0.900000E-01   1.00800           0
      1609 MEMB     115      SAPS     P        PL       1.500000       30.9740           0
      1610 MEMB     115      SAPS     O13      O2L     -0.780000       15.9994           0
      1611 MEMB     115      SAPS     O14      O2L     -0.780000       15.9994           0
      1612 MEMB     115      SAPS     O12      OSLP    -0.570000       15.9994           0
      1613 MEMB     115      SAPS     O11      OSLP    -0.570000       15.9994           0
      1614 MEMB     115      SAPS     C1       CTL2    -0.800000E-01   12.0110           0
      1615 MEMB     115      SAPS     HA       HAL2     0.900000E-01   1.00800           0
      1616 MEMB     115      SAPS     HB       HAL2     0.900000E-01   1.00800           0
      1617 MEMB     115      SAPS     C2       CTL1     0.170000       12.0110           0
      1618 MEMB     115      SAPS     HS       HAL1     0.900000E-01   1.00800           0
      1619 MEMB     115      SAPS     O21      OSL     -0.490000       15.9994           0
      1620 MEMB     115      SAPS     C21      CL       0.900000       12.0110           0
      1621 MEMB     115      SAPS     O22      OBL     -0.630000       15.9994           0
      1622 MEMB     115      SAPS     C22      CTL2    -0.220000       12.0110           0
      1623 MEMB     115      SAPS     H2R      HAL2     0.900000E-01   1.00800           0
      1624 MEMB     115      SAPS     H2S      HAL2     0.900000E-01   1.00800           0
      1625 MEMB     115      SAPS     C3       CTL2     0.800000E-01   12.0110           0
      1626 MEMB     115      SAPS     HX       HAL2     0.900000E-01   1.00800           0
      1627 MEMB     115      SAPS     HY       HAL2     0.900000E-01   1.00800           0
      1628 MEMB     115      SAPS     O31      OSL     -0.490000       15.9994           0
      1629 MEMB     115      SAPS     C31      CL       0.900000       12.0110           0
      1630 MEMB     115      SAPS     O32      OBL     -0.630000       15.9994           0
      1631 MEMB     115      SAPS     C32      CTL2    -0.220000       12.0110           0
      1632 MEMB     115      SAPS     H2X      HAL2     0.900000E-01   1.00800           0
      1633 MEMB     115      SAPS     H2Y      HAL2     0.900000E-01   1.00800           0
      1634 MEMB     115      SAPS     C23      CTL2    -0.180000       12.0110           0
      1635 MEMB     115      SAPS     H3R      HAL2     0.900000E-01   1.00800           0
      1636 MEMB     115      SAPS     H3S      HAL2     0.900000E-01   1.00800           0
      1637 MEMB     115      SAPS     C24      CTL2    -0.180000       12.0110           0
      1638 MEMB     115      SAPS     H4R      HAL2     0.900000E-01   1.00800           0
      1639 MEMB     115      SAPS     H4S      HAL2     0.900000E-01   1.00800           0
      1640 MEMB     115      SAPS     C25      CEL1    -0.150000       12.0110           0
      1641 MEMB     115      SAPS     H5R      HEL1     0.150000       1.00800           0
      1642 MEMB     115      SAPS     C26      CEL1    -0.150000       12.0110           0
      1643 MEMB     115      SAPS     H6R      HEL1     0.150000       1.00800           0
      1644 MEMB     115      SAPS     C27      CTL2    -0.180000       12.0110           0
      1645 MEMB     115      SAPS     H7R      HAL2     0.900000E-01   1.00800           0
      1646 MEMB     115      SAPS     H7S      HAL2     0.900000E-01   1.00800           0
      1647 MEMB     115      SAPS     C28      CEL1    -0.150000       12.0110           0
      1648 MEMB     115      SAPS     H8R      HEL1     0.150000       1.00800           0
      1649 MEMB     115      SAPS     C29      CEL1    -0.150000       12.0110           0
      1650 MEMB     115      SAPS     H9R      HEL1     0.150000       1.00800           0
      1651 MEMB     115      SAPS     C210     CTL2    -0.180000       12.0110           0
      1652 MEMB     115      SAPS     H10R     HAL2     0.900000E-01   1.00800           0
      1653 MEMB     115      SAPS     H10S     HAL2     0.900000E-01   1.00800           0
      1654 MEMB     115      SAPS     C211     CEL1    -0.150000       12.0110           0
      1655 MEMB     115      SAPS     H11R     HEL1     0.150000       1.00800           0
      1656 MEMB     115      SAPS     C212     CEL1    -0.150000       12.0110           0
      1657 MEMB     115      SAPS     H12R     HEL1     0.150000       1.00800           0
      1658 MEMB     115      SAPS     C213     CTL2    -0.180000       12.0110           0
      1659 MEMB     115      SAPS     H13R     HAL2     0.900000E-01   1.00800           0
      1660 MEMB     115      SAPS     H13S     HAL2     0.900000E-01   1.00800           0
      1661 MEMB     115      SAPS     C214     CEL1    -0.150000       12.0110           0
      1662 MEMB     115      SAPS     H14R     HEL1     0.150000       1.00800           0
      1663 MEMB     115      SAPS     C215     CEL1    -0.150000       12.0110           0
      1664 MEMB     115      SAPS     H15R     HEL1     0.150000       1.00800           0
      1665 MEMB     115      SAPS     C216     CTL2    -0.180000       12.0110           0
      1666 MEMB     115      SAPS     H16R     HAL2     0.900000E-01   1.00800           0
      1667 MEMB     115      SAPS     H16S     HAL2     0.900000E-01   1.00800           0
      1668 MEMB     115      SAPS     C217     CTL2    -0.180000       12.0110           0
      1669 MEMB     115      SAPS     H17R     HAL2     0.900000E-01   1.00800           0
      1670 MEMB     115      SAPS     H17S     HAL2     0.900000E-01   1.00800           0
      1671 MEMB     115      SAPS     C218     CTL2    -0.180000       12.0110           0
      1672 MEMB     115      SAPS     H18R     HAL2     0.900000E-01   1.00800           0
      1673 MEMB     115      SAPS     H18S     HAL2     0.900000E-01   1.00800           0
      1674 MEMB     115      SAPS     C219     CTL2    -0.180000       12.0110           0
      1675 MEMB     115      SAPS     H19R     HAL2     0.900000E-01   1.00800           0
      1676 MEMB     115      SAPS     H19S     HAL2     0.900000E-01   1.00800           0
      1677 MEMB     115      SAPS     C220     CTL3    -0.270000       12.0110           0
      1678 MEMB     115      SAPS     H20R     HAL3     0.900000E-01   1.00800           0
      1679 MEMB     115      SAPS     H20S     HAL3     0.900000E-01   1.00800           0
      1680 MEMB     115      SAPS     H20T     HAL3     0.900000E-01   1.00800           0
      1681 MEMB     115      SAPS     C33      CTL2    -0.180000       12.0110           0
      1682 MEMB     115      SAPS     H3X      HAL2     0.900000E-01   1.00800           0
      1683 MEMB     115      SAPS     H3Y      HAL2     0.900000E-01   1.00800           0
      1684 MEMB     115      SAPS     C34      CTL2    -0.180000       12.0110           0
      1685 MEMB     115      SAPS     H4X      HAL2     0.900000E-01   1.00800           0
      1686 MEMB     115      SAPS     H4Y      HAL2     0.900000E-01   1.00800           0
      1687 MEMB     115      SAPS     C35      CTL2    -0.180000       12.0110           0
      1688 MEMB     115      SAPS     H5X      HAL2     0.900000E-01   1.00800           0
      1689 MEMB     115      SAPS     H5Y      HAL2     0.900000E-01   1.00800           0
      1690 MEMB     115      SAPS     C36      CTL2    -0.180000       12.0110           0
      1691 MEMB     115      SAPS     H6X      HAL2     0.900000E-01   1.00800           0
      1692 MEMB     115      SAPS     H6Y      HAL2     0.900000E-01   1.00800           0
      1693 MEMB     115      SAPS     C37      CTL2    -0.180000       12.0110           0
      1694 MEMB     115      SAPS     H7X      HAL2     0.900000E-01   1.00800           0
      1695 MEMB     115      SAPS     H7Y      HAL2     0.900000E-01   1.00800           0
      1696 MEMB     115      SAPS     C38      CTL2    -0.180000       12.0110           0
      1697 MEMB     115      SAPS     H8X      HAL2     0.900000E-01   1.00800           0
      1698 MEMB     115      SAPS     H8Y      HAL2     0.900000E-01   1.00800           0
      1699 MEMB     115      SAPS     C39      CTL2    -0.180000       12.0110           0
      1700 MEMB     115      SAPS     H9X      HAL2     0.900000E-01   1.00800           0
      1701 MEMB     115      SAPS     H9Y      HAL2     0.900000E-01   1.00800           0
      1702 MEMB     115      SAPS     C310     CTL2    -0.180000       12.0110           0
      1703 MEMB     115      SAPS     H10X     HAL2     0.900000E-01   1.00800           0
      1704 MEMB     115      SAPS     H10Y     HAL2     0.900000E-01   1.00800           0
      1705 MEMB     115      SAPS     C311     CTL2    -0.180000       12.0110           0
      1706 MEMB     115      SAPS     H11X     HAL2     0.900000E-01   1.00800           0
      1707 MEMB     115      SAPS     H11Y     HAL2     0.900000E-01   1.00800           0
      1708 MEMB     115      SAPS     C312     CTL2    -0.180000       12.0110           0
      1709 MEMB     115      SAPS     H12X     HAL2     0.900000E-01   1.00800           0
      1710 MEMB     115      SAPS     H12Y     HAL2     0.900000E-01   1.00800           0
      1711 MEMB     115      SAPS     C313     CTL2    -0.180000       12.0110           0
      1712 MEMB     115      SAPS     H13X     HAL2     0.900000E-01   1.00800           0
      1713 MEMB     115      SAPS     H13Y     HAL2     0.900000E-01   1.00800           0
      1714 MEMB     115      SAPS     C314     CTL2    -0.180000       12.0110           0
      1715 MEMB     115      SAPS     H14X     HAL2     0.900000E-01   1.00800           0
      1716 MEMB     115      SAPS     H14Y     HAL2     0.900000E-01   1.00800           0
      1717 MEMB     115      SAPS     C315     CTL2    -0.180000       12.0110           0
      1718 MEMB     115      SAPS     H15X     HAL2     0.900000E-01   1.00800           0
      1719 MEMB     115      SAPS     H15Y     HAL2     0.900000E-01   1.00800           0
      1720 MEMB     115      SAPS     C316     CTL2    -0.180000       12.0110           0
      1721 MEMB     115      SAPS     H16X     HAL2     0.900000E-01   1.00800           0
      1722 MEMB     115      SAPS     H16Y     HAL2     0.900000E-01   1.00800           0
      1723 MEMB     115      SAPS     C317     CTL2    -0.180000       12.0110           0
      1724 MEMB     115      SAPS     H17X     HAL2     0.900000E-01   1.00800           0
      1725 MEMB     115      SAPS     H17Y     HAL2     0.900000E-01   1.00800           0
      1726 MEMB     115      SAPS     C318     CTL3    -0.270000       12.0110           0
      1727 MEMB     115      SAPS     H18X     HAL3     0.900000E-01   1.00800           0
      1728 MEMB     115      SAPS     H18Y     HAL3     0.900000E-01   1.00800           0
      1729 MEMB     115      SAPS     H18Z     HAL3     0.900000E-01   1.00800           0
      1730 MEMB     119      SAPS     N        NH3L    -0.300000       14.0070           0
      1731 MEMB     119      SAPS     HN1      HCL      0.330000       1.00800           0
      1732 MEMB     119      SAPS     HN2      HCL      0.330000       1.00800           0
      1733 MEMB     119      SAPS     HN3      HCL      0.330000       1.00800           0
      1734 MEMB     119      SAPS     C12      CTL1     0.210000       12.0110           0
      1735 MEMB     119      SAPS     H12A     HBL      0.100000       1.00800           0
      1736 MEMB     119      SAPS     C13      CCL      0.340000       12.0110           0
      1737 MEMB     119      SAPS     O13A     OCL     -0.670000       15.9994           0
      1738 MEMB     119      SAPS     O13B     OCL     -0.670000       15.9994           0
      1739 MEMB     119      SAPS     C11      CTL2    -0.800000E-01   12.0110           0
      1740 MEMB     119      SAPS     H11A     HAL2     0.900000E-01   1.00800           0
      1741 MEMB     119      SAPS     H11B     HAL2     0.900000E-01   1.00800           0
      1742 MEMB     119      SAPS     P        PL       1.500000       30.9740           0
      1743 MEMB     119      SAPS     O13      O2L     -0.780000       15.9994           0
      1744 MEMB     119      SAPS     O14      O2L     -0.780000       15.9994           0
      1745 MEMB     119      SAPS     O12      OSLP    -0.570000       15.9994           0
      1746 MEMB     119      SAPS     O11      OSLP    -0.570000       15.9994           0
      1747 MEMB     119      SAPS     C1       CTL2    -0.800000E-01   12.0110           0
      1748 MEMB     119      SAPS     HA       HAL2     0.900000E-01   1.00800           0
      1749 MEMB     119      SAPS     HB       HAL2     0.900000E-01   1.00800           0
      1750 MEMB     119      SAPS     C2       CTL1     0.170000       12.0110           0
      1751 MEMB     119      SAPS     HS       HAL1     0.900000E-01   1.00800           0
      1752 MEMB     119      SAPS     O21      OSL     -0.490000       15.9994           0
      1753 MEMB     119      SAPS     C21      CL       0.900000       12.0110           0
      1754 MEMB     119      SAPS     O22      OBL     -0.630000       15.9994           0
      1755 MEMB     119      SAPS     C22      CTL2    -0.220000       12.0110           0
      1756 MEMB     119      SAPS     H2R      HAL2     0.900000E-01   1.00800           0
      1757 MEMB     119      SAPS     H2S      HAL2     0.900000E-01   1.00800           0
      1758 MEMB     119      SAPS     C3       CTL2     0.800000E-01   12.0110           0
      1759 MEMB     119      SAPS     HX       HAL2     0.900000E-01   1.00800           0
      1760 MEMB     119      SAPS     HY       HAL2     0.900000E-01   1.00800           0
      1761 MEMB     119      SAPS     O31      OSL     -0.490000       15.9994           0
      1762 MEMB     119      SAPS     C31      CL       0.900000       12.0110           0
      1763 MEMB     119      SAPS     O32      OBL     -0.630000       15.9994           0
      1764 MEMB     119      SAPS     C32      CTL2    -0.220000       12.0110           0
      1765 MEMB     119      SAPS     H2X      HAL2     0.900000E-01   1.00800           0
      1766 MEMB     119      SAPS     H2Y      HAL2     0.900000E-01   1.00800           0
      1767 MEMB     119      SAPS     C23      CTL2    -0.180000       12.0110           0
      1768 MEMB     119      SAPS     H3R      HAL2     0.900000E-01   1.00800           0
      1769 MEMB     119      SAPS     H3S      HAL2     0.900000E-01   1.00800           0
      1770 MEMB     119      SAPS     C24      CTL2    -0.180000       12.0110           0
      1771 MEMB     119      SAPS     H4R      HAL2     0.900000E-01   1.00800           0
      1772 MEMB     119      SAPS     H4S      HAL2     0.900000E-01   1.00800           0
      1773 MEMB     119      SAPS     C25      CEL1    -0.150000       12.0110           0
      1774 MEMB     119      SAPS     H5R      HEL1     0.150000       1.00800           0
      1775 MEMB     119      SAPS     C26      CEL1    -0.150000       12.0110           0
      1776 MEMB     119      SAPS     H6R      HEL1     0.150000       1.00800           0
      1777 MEMB     119      SAPS     C27      CTL2    -0.180000       12.0110           0
      1778 MEMB     119      SAPS     H7R      HAL2     0.900000E-01   1.00800           0
      1779 MEMB     119      SAPS     H7S      HAL2     0.900000E-01   1.00800           0
      1780 MEMB     119      SAPS     C28      CEL1    -0.150000       12.0110           0
      1781 MEMB     119      SAPS     H8R      HEL1     0.150000       1.00800           0
      1782 MEMB     119      SAPS     C29      CEL1    -0.150000       12.0110           0
      1783 MEMB     119      SAPS     H9R      HEL1     0.150000       1.00800           0
      1784 MEMB     119      SAPS     C210     CTL2    -0.180000       12.0110           0
      1785 MEMB     119      SAPS     H10R     HAL2     0.900000E-01   1.00800           0
      1786 MEMB     119      SAPS     H10S     HAL2     0.900000E-01   1.00800           0
      1787 MEMB     119      SAPS     C211     CEL1    -0.150000       12.0110           0
      1788 MEMB     119      SAPS     H11R     HEL1     0.150000       1.00800           0
      1789 MEMB     119      SAPS     C212     CEL1    -0.150000       12.0110           0
      1790 MEMB     119      SAPS     H12R     HEL1     0.150000       1.00800           0
      1791 MEMB     119      SAPS     C213     CTL2    -0.180000       12.0110           0
      1792 MEMB     119      SAPS     H13R     HAL2     0.900000E-01   1.00800           0
      1793 MEMB     119      SAPS     H13S     HAL2     0.900000E-01   1.00800           0
      1794 MEMB     119      SAPS     C214     CEL1    -0.150000       12.0110           0
      1795 MEMB     119      SAPS     H14R     HEL1     0.150000       1.00800           0
      1796 MEMB     119      SAPS     C215     CEL1    -0.150000       12.0110           0
      1797 MEMB     119      SAPS     H15R     HEL1     0.150000       1.00800           0
      1798 MEMB     119      SAPS     C216     CTL2    -0.180000       12.0110           0
      1799 MEMB     119      SAPS     H16R     HAL2     0.900000E-01   1.00800           0
      1800 MEMB     119      SAPS     H16S     HAL2     0.900000E-01   1.00800           0
      1801 MEMB     119      SAPS     C217     CTL2    -0.180000       12.0110           0
      1802 MEMB     119      SAPS     H17R     HAL2     0.900000E-01   1.00800           0
      1803 MEMB     119      SAPS     H17S     HAL2     0.900000E-01   1.00800           0
      1804 MEMB     119      SAPS     C218     CTL2    -0.180000       12.0110           0
      1805 MEMB     119      SAPS     H18R     HAL2     0.900000E-01   1.00800           0
      1806 MEMB     119      SAPS     H18S     HAL2     0.900000E-01   1.00800           0
      1807 MEMB     119      SAPS     C219     CTL2    -0.180000       12.0110           0
      1808 MEMB     119      SAPS     H19R     HAL2     0.900000E-01   1.00800           0
      1809 MEMB     119      SAPS     H19S     HAL2     0.900000E-01   1.00800           0
      1810 MEMB     119      SAPS     C220     CTL3    -0.270000       12.0110           0
      1811 MEMB     119      SAPS     H20R     HAL3     0.900000E-01   1.00800           0
      1812 MEMB     119      SAPS     H20S     HAL3     0.900000E-01   1.00800           0
      1813 MEMB     119      SAPS     H20T     HAL3     0.900000E-01   1.00800           0
      1814 MEMB     119      SAPS     C33      CTL2    -0.180000       12.0110           0
      1815 MEMB     119      SAPS     H3X      HAL2     0.900000E-01   1.00800           0
      1816 MEMB     119      SAPS     H3Y      HAL2     0.900000E-01   1.00800           0
      1817 MEMB     119      SAPS     C34      CTL2    -0.180000       12.0110           0
      1818 MEMB     119      SAPS     H4X      HAL2     0.900000E-01   1.00800           0
      1819 MEMB     119      SAPS     H4Y      HAL2     0.900000E-01   1.00800           0
      1820 MEMB     119      SAPS     C35      CTL2    -0.180000       12.0110           0
      1821 MEMB     119      SAPS     H5X      HAL2     0.900000E-01   1.00800           0
      1822 MEMB     119      SAPS     H5Y      HAL2     0.900000E-01   1.00800           0
      1823 MEMB     119      SAPS     C36      CTL2    -0.180000       12.0110           0
      1824 MEMB     119      SAPS     H6X      HAL2     0.900000E-01   1.00800           0
      1825 MEMB     119      SAPS     H6Y      HAL2     0.900000E-01   1.00800           0
      1826 MEMB     119      SAPS     C37      CTL2    -0.180000       12.0110           0
      1827 MEMB     119      SAPS     H7X      HAL2     0.900000E-01   1.00800           0
      1828 MEMB     119      SAPS     H7Y      HAL2     0.900000E-01   1.00800           0
      1829 MEMB     119      SAPS     C38      CTL2    -0.180000       12.0110           0
      1830 MEMB     119      SAPS     H8X      HAL2     0.900000E-01   1.00800           0
      1831 MEMB     119      SAPS     H8Y      HAL2     0.900000E-01   1.00800           0
      1832 MEMB     119      SAPS     C39      CTL2    -0.180000       12.0110           0
      1833 MEMB     119      SAPS     H9X      HAL2     0.900000E-01   1.00800           0
      1834 MEMB     119      SAPS     H9Y      HAL2     0.900000E-01   1.00800           0
      1835 MEMB     119      SAPS     C310     CTL2    -0.180000       12.0110           0
      1836 MEMB     119      SAPS     H10X     HAL2     0.900000E-01   1.00800           0
      1837 MEMB     119      SAPS     H10Y     HAL2     0.900000E-01   1.00800           0
      1838 MEMB     119      SAPS     C311     CTL2    -0.180000       12.0110           0
      1839 MEMB     119      SAPS     H11X     HAL2     0.900000E-01   1.00800           0
      1840 MEMB     119      SAPS     H11Y     HAL2     0.900000E-01   1.00800           0
      1841 MEMB     119      SAPS     C312     CTL2    -0.180000       12.0110           0
      1842 MEMB     119      SAPS     H12X     HAL2     0.900000E-01   1.00800           0
      1843 MEMB     119      SAPS     H12Y     HAL2     0.900000E-01   1.00800           0
      1844 MEMB     119      SAPS     C313     CTL2    -0.180000       12.0110           0
      1845 MEMB     119      SAPS     H13X     HAL2     0.900000E-01   1.00800           0
      1846 MEMB     119      SAPS     H13Y     HAL2     0.900000E-01   1.00800           0
      1847 MEMB     119      SAPS     C314     CTL2    -0.180000       12.0110           0
      1848 MEMB     119      SAPS     H14X     HAL2     0.900000E-01   1.00800           0
      1849 MEMB     119      SAPS     H14Y     HAL2     0.900000E-01   1.00800           0
      1850 MEMB     119      SAPS     C315     CTL2    -0.180000       12.0110           0
      1851 MEMB     119      SAPS     H15X     HAL2     0.900000E-01   1.00800           0
      1852 MEMB     119      SAPS     H15Y     HAL2     0.900000E-01   1.00800           0
      1853 MEMB     119      SAPS     C316     CTL2    -0.180000       12.0110           0
      1854 MEMB     119      SAPS     H16X     HAL2     0.900000E-01   1.00800           0
      1855 MEMB     119      SAPS     H16Y     HAL2     0.900000E-01   1.00800           0
      1856 MEMB     119      SAPS     C317     CTL2    -0.180000       12.0110           0
      1857 MEMB     119      SAPS     H17X     HAL2     0.900000E-01   1.00800           0
      1858 MEMB     119      SAPS     H17Y     HAL2     0.900000E-01   1.00800           0
      1859 MEMB     119      SAPS     C318     CTL3    -0.270000       12.0110           0
      1860 MEMB     119      SAPS     H18X     HAL3     0.900000E-01   1.00800           0
      1861 MEMB     119      SAPS     H18Y     HAL3     0.900000E-01   1.00800           0
      1862 MEMB     119      SAPS     H18Z     HAL3     0.900000E-01   1.00800           0
      1863 MEMB     127      SAPS     N        NH3L    -0.300000       14.0070           0
      1864 MEMB     127      SAPS     HN1      HCL      0.330000       1.00800           0
      1865 MEMB     127      SAPS     HN2      HCL      0.330000       1.00800           0
      1866 MEMB     127      SAPS     HN3      HCL      0.330000       1.00800           0
      1867 MEMB     127      SAPS     C12      CTL1     0.210000       12.0110           0
      1868 MEMB     127      SAPS     H12A     HBL      0.100000       1.00800           0
      1869 MEMB     127      SAPS     C13      CCL      0.340000       12.0110           0
      1870 MEMB     127      SAPS     O13A     OCL     -0.670000       15.9994           0
      1871 MEMB     127      SAPS     O13B     OCL     -0.670000       15.9994           0
      1872 MEMB     127      SAPS     C11      CTL2    -0.800000E-01   12.0110           0
      1873 MEMB     127      SAPS     H11A     HAL2     0.900000E-01   1.00800           0
      1874 MEMB     127      SAPS     H11B     HAL2     0.900000E-01   1.00800           0
      1875 MEMB     127      SAPS     P        PL       1.500000       30.9740           0
      1876 MEMB     127      SAPS     O13      O2L     -0.780000       15.9994           0
      1877 MEMB     127      SAPS     O14      O2L     -0.780000       15.9994           0
      1878 MEMB     127      SAPS     O12      OSLP    -0.570000       15.9994           0
      1879 MEMB     127      SAPS     O11      OSLP    -0.570000       15.9994           0
      1880 MEMB     127      SAPS     C1       CTL2    -0.800000E-01   12.0110           0
      1881 MEMB     127      SAPS     HA       HAL2     0.900000E-01   1.00800           0
      1882 MEMB     127      SAPS     HB       HAL2     0.900000E-01   1.00800           0
      1883 MEMB     127      SAPS     C2       CTL1     0.170000       12.0110           0
      1884 MEMB     127      SAPS     HS       HAL1     0.900000E-01   1.00800           0
      1885 MEMB     127      SAPS     O21      OSL     -0.490000       15.9994           0
      1886 MEMB     127      SAPS     C21      CL       0.900000       12.0110           0
      1887 MEMB     127      SAPS     O22      OBL     -0.630000       15.9994           0
      1888 MEMB     127      SAPS     C22      CTL2    -0.220000       12.0110           0
      1889 MEMB     127      SAPS     H2R      HAL2     0.900000E-01   1.00800           0
      1890 MEMB     127      SAPS     H2S      HAL2     0.900000E-01   1.00800           0
      1891 MEMB     127      SAPS     C3       CTL2     0.800000E-01   12.0110           0
      1892 MEMB     127      SAPS     HX       HAL2     0.900000E-01   1.00800           0
      1893 MEMB     127      SAPS     HY       HAL2     0.900000E-01   1.00800           0
      1894 MEMB     127      SAPS     O31      OSL     -0.490000       15.9994           0
      1895 MEMB     127      SAPS     C31      CL       0.900000       12.0110           0
      1896 MEMB     127      SAPS     O32      OBL     -0.630000       15.9994           0
      1897 MEMB     127      SAPS     C32      CTL2    -0.220000       12.0110           0
      1898 MEMB     127      SAPS     H2X      HAL2     0.900000E-01   1.00800           0
      1899 MEMB     127      SAPS     H2Y      HAL2     0.900000E-01   1.00800           0
      1900 MEMB     127      SAPS     C23      CTL2    -0.180000       12.0110           0
      1901 MEMB     127      SAPS     H3R      HAL2     0.900000E-01   1.00800           0
      1902 MEMB     127      SAPS     H3S      HAL2     0.900000E-01   1.00800           0
      1903 MEMB     127      SAPS     C24      CTL2    -0.180000       12.0110           0
      1904 MEMB     127      SAPS     H4R      HAL2     0.900000E-01   1.00800           0
      1905 MEMB     127      SAPS     H4S      HAL2     0.900000E-01   1.00800           0
      1906 MEMB     127      SAPS     C25      CEL1    -0.150000       12.0110           0
      1907 MEMB     127      SAPS     H5R      HEL1     0.150000       1.00800           0
      1908 MEMB     127      SAPS     C26      CEL1    -0.150000       12.0110           0
      1909 MEMB     127      SAPS     H6R      HEL1     0.150000       1.00800           0
      1910 MEMB     127      SAPS     C27      CTL2    -0.180000       12.0110           0
      1911 MEMB     127      SAPS     H7R      HAL2     0.900000E-01   1.00800           0
      1912 MEMB     127      SAPS     H7S      HAL2     0.900000E-01   1.00800           0
      1913 MEMB     127      SAPS     C28      CEL1    -0.150000       12.0110           0
      1914 MEMB     127      SAPS     H8R      HEL1     0.150000       1.00800           0
      1915 MEMB     127      SAPS     C29      CEL1    -0.150000       12.0110           0
      1916 MEMB     127      SAPS     H9R      HEL1     0.150000       1.00800           0
      1917 MEMB     127      SAPS     C210     CTL2    -0.180000       12.0110           0
      1918 MEMB     127      SAPS     H10R     HAL2     0.900000E-01   1.00800           0
      1919 MEMB     127      SAPS     H10S     HAL2     0.900000E-01   1.00800           0
      1920 MEMB     127      SAPS     C211     CEL1    -0.150000       12.0110           0
      1921 MEMB     127      SAPS     H11R     HEL1     0.150000       1.00800           0
      1922 MEMB     127      SAPS     C212     CEL1    -0.150000       12.0110           0
      1923 MEMB     127      SAPS     H12R     HEL1     0.150000       1.00800           0
      1924 MEMB     127      SAPS     C213     CTL2    -0.180000       12.0110           0
      1925 MEMB     127      SAPS     H13R     HAL2     0.900000E-01   1.00800           0
      1926 MEMB     127      SAPS     H13S     HAL2     0.900000E-01   1.00800           0
      1927 MEMB     127      SAPS     C214     CEL1    -0.150000       12.0110           0
      1928 MEMB     127      SAPS     H14R     HEL1     0.150000       1.00800           0
      1929 MEMB     127      SAPS     C215     CEL1    -0.150000       12.0110           0
      1930 MEMB     127      SAPS     H15R     HEL1     0.150000       1.00800           0
      1931 MEMB     127      SAPS     C216     CTL2    -0.180000       12.0110           0
      1932 MEMB     127      SAPS     H16R     HAL2     0.900000E-01   1.00800           0
      1933 MEMB     127      SAPS     H16S     HAL2     0.900000E-01   1.00800           0
      1934 MEMB     127      SAPS     C217     CTL2    -0.180000       12.0110           0
      1935 MEMB     127      SAPS     H17R     HAL2     0.900000E-01   1.00800           0
      1936 MEMB     127      SAPS     H17S     HAL2     0.900000E-01   1.00800           0
      1937 MEMB     127      SAPS     C218     CTL2    -0.180000       12.0110           0
      1938 MEMB     127      SAPS     H18R     HAL2     0.900000E-01   1.00800           0
      1939 MEMB     127      SAPS     H18S     HAL2     0.900000E-01   1.00800           0
      1940 MEMB     127      SAPS     C219     CTL2    -0.180000       12.0110           0
      1941 MEMB     127      SAPS     H19R     HAL2     0.900000E-01   1.00800           0
      1942 MEMB     127      SAPS     H19S     HAL2     0.900000E-01   1.00800           0
      1943 MEMB     127      SAPS     C220     CTL3    -0.270000       12.0110           0
      1944 MEMB     127      SAPS     H20R     HAL3     0.900000E-01   1.00800           0
      1945 MEMB     127      SAPS     H20S     HAL3     0.900000E-01   1.00800           0
      1946 MEMB     127      SAPS     H20T     HAL3     0.900000E-01   1.00800           0
      1947 MEMB     127      SAPS     C33      CTL2    -0.180000       12.0110           0
      1948 MEMB     127      SAPS     H3X      HAL2     0.900000E-01   1.00800           0
      1949 MEMB     127      SAPS     H3Y      HAL2     0.900000E-01   1.00800           0
      1950 MEMB     127      SAPS     C34      CTL2    -0.180000       12.0110           0
      1951 MEMB     127      SAPS     H4X      HAL2     0.900000E-01   1.00800           0
      1952 MEMB     127      SAPS     H4Y      HAL2     0.900000E-01   1.00800           0
      1953 MEMB     127      SAPS     C35      CTL2    -0.180000       12.0110           0
      1954 MEMB     127      SAPS     H5X      HAL2     0.900000E-01   1.00800           0
      1955 MEMB     127      SAPS     H5Y      HAL2     0.900000E-01   1.00800           0
      1956 MEMB     127      SAPS     C36      CTL2    -0.180000       12.0110           0
      1957 MEMB     127      SAPS     H6X      HAL2     0.900000E-01   1.00800           0
      1958 MEMB     127      SAPS     H6Y      HAL2     0.900000E-01   1.00800           0
      1959 MEMB     127      SAPS     C37      CTL2    -0.180000       12.0110           0
      1960 MEMB     127      SAPS     H7X      HAL2     0.900000E-01   1.00800           0
      1961 MEMB     127      SAPS     H7Y      HAL2     0.900000E-01   1.00800           0
      1962 MEMB     127      SAPS     C38      CTL2    -0.180000       12.0110           0
      1963 MEMB     127      SAPS     H8X      HAL2     0.900000E-01   1.00800           0
      1964 MEMB     127      SAPS     H8Y      HAL2     0.900000E-01   1.00800           0
      1965 MEMB     127      SAPS     C39      CTL2    -0.180000       12.0110           0
      1966 MEMB     127      SAPS     H9X      HAL2     0.900000E-01   1.00800           0
      1967 MEMB     127      SAPS     H9Y      HAL2     0.900000E-01   1.00800           0
      1968 MEMB     127      SAPS     C310     CTL2    -0.180000       12.0110           0
      1969 MEMB     127      SAPS     H10X     HAL2     0.900000E-01   1.00800           0
      1970 MEMB     127      SAPS     H10Y     HAL2     0.900000E-01   1.00800           0
      1971 MEMB     127      SAPS     C311     CTL2    -0.180000       12.0110           0
      1972 MEMB     127      SAPS     H11X     HAL2     0.900000E-01   1.00800           0
      1973 MEMB     127      SAPS     H11Y     HAL2     0.900000E-01   1.00800           0
      1974 MEMB     127      SAPS     C312     CTL2    -0.180000       12.0110           0
      1975 MEMB     127      SAPS     H12X     HAL2     0.900000E-01   1.00800           0
      1976 MEMB     127      SAPS     H12Y     HAL2     0.900000E-01   1.00800           0
      1977 MEMB     127      SAPS     C313     CTL2    -0.180000       12.0110           0
      1978 MEMB     127      SAPS     H13X     HAL2     0.900000E-01   1.00800           0
      1979 MEMB     127      SAPS     H13Y     HAL2     0.900000E-01   1.00800           0
      1980 MEMB     127      SAPS     C314     CTL2    -0.180000       12.0110           0
      1981 MEMB     127      SAPS     H14X     HAL2     0.900000E-01   1.00800           0
      1982 MEMB     127      SAPS     H14Y     HAL2     0.900000E-01   1.00800           0
      1983 MEMB     127      SAPS     C315     CTL2    -0.180000       12.0110           0
      1984 MEMB     127      SAPS     H15X     HAL2     0.900000E-01   1.00800           0
      1985 MEMB     127      SAPS     H15Y     HAL2     0.900000E-01   1.00800           0
      1986 MEMB     127      SAPS     C316     CTL2    -0.180000       12.0110           0
      1987 MEMB     127      SAPS     H16X     HAL2     0.900000E-01   1.00800           0
      1988 MEMB     127      SAPS     H16Y     HAL2     0.900000E-01   1.00800           0
      1989 MEMB     127      SAPS     C317     CTL2    -0.180000       12.0110           0
      1990 MEMB     127      SAPS     H17X     HAL2     0.900000E-01   1.00800           0
      1991 MEMB     127      SAPS     H17Y     HAL2     0.900000E-01   1.00800           0
      1992 MEMB     127      SAPS     C318     CTL3    -0.270000       12.0110           0
      1993 MEMB     127      SAPS     H18X     HAL3     0.900000E-01   1.00800           0
      1994 MEMB     127      SAPS     H18Y     HAL3     0.900000E-01   1.00800           0
      1995 MEMB     127      SAPS     H18Z     HAL3     0.900000E-01   1.00800           0
      1996 MEMB     129      SAPS     N        NH3L    -0.300000       14.0070           0
      1997 MEMB     129      SAPS     HN1      HCL      0.330000       1.00800           0
      1998 MEMB     129      SAPS     HN2      HCL      0.330000       1.00800           0
      1999 MEMB     129      SAPS     HN3      HCL      0.330000       1.00800           0
      2000 MEMB     129      SAPS     C12      CTL1     0.210000       12.0110           0
      2001 MEMB     129      SAPS     H12A     HBL      0.100000       1.00800           0
      2002 MEMB     129      SAPS     C13      CCL      0.340000       12.0110           0
      2003 MEMB     129      SAPS     O13A     OCL     -0.670000       15.9994           0
      2004 MEMB     129      SAPS     O13B     OCL     -0.670000       15.9994           0
      2005 MEMB     129      SAPS     C11      CTL2    -0.800000E-01   12.0110           0
      2006 MEMB     129      SAPS     H11A     HAL2     0.900000E-01   1.00800           0
      2007 MEMB     129      SAPS     H11B     HAL2     0.900000E-01   1.00800           0
      2008 MEMB     129      SAPS     P        PL       1.500000       30.9740           0
      2009 MEMB     129      SAPS     O13      O2L     -0.780000       15.9994           0
      2010 MEMB     129      SAPS     O14      O2L     -0.780000       15.9994           0
      2011 MEMB     129      SAPS     O12      OSLP    -0.570000       15.9994           0
      2012 MEMB     129      SAPS     O11      OSLP    -0.570000       15.9994           0
      2013 MEMB     129      SAPS     C1       CTL2    -0.800000E-01   12.0110           0
      2014 MEMB     129      SAPS     HA       HAL2     0.900000E-01   1.00800           0
      2015 MEMB     129      SAPS     HB       HAL2     0.900000E-01   1.00800           0
      2016 MEMB     129      SAPS     C2       CTL1     0.170000       12.0110           0
      2017 MEMB     129      SAPS     HS       HAL1     0.900000E-01   1.00800           0
      2018 MEMB     129      SAPS     O21      OSL     -0.490000       15.9994           0
      2019 MEMB     129      SAPS     C21      CL       0.900000       12.0110           0
      2020 MEMB     129      SAPS     O22      OBL     -0.630000       15.9994           0
      2021 MEMB     129      SAPS     C22      CTL2    -0.220000       12.0110           0
      2022 MEMB     129      SAPS     H2R      HAL2     0.900000E-01   1.00800           0
      2023 MEMB     129      SAPS     H2S      HAL2     0.900000E-01   1.00800           0
      2024 MEMB     129      SAPS     C3       CTL2     0.800000E-01   12.0110           0
      2025 MEMB     129      SAPS     HX       HAL2     0.900000E-01   1.00800           0
      2026 MEMB     129      SAPS     HY       HAL2     0.900000E-01   1.00800           0
      2027 MEMB     129      SAPS     O31      OSL     -0.490000       15.9994           0
      2028 MEMB     129      SAPS     C31      CL       0.900000       12.0110           0
      2029 MEMB     129      SAPS     O32      OBL     -0.630000       15.9994           0
      2030 MEMB     129      SAPS     C32      CTL2    -0.220000       12.0110           0
      2031 MEMB     129      SAPS     H2X      HAL2     0.900000E-01   1.00800           0
      2032 MEMB     129      SAPS     H2Y      HAL2     0.900000E-01   1.00800           0
      2033 MEMB     129      SAPS     C23      CTL2    -0.180000       12.0110           0
      2034 MEMB     129      SAPS     H3R      HAL2     0.900000E-01   1.00800           0
      2035 MEMB     129      SAPS     H3S      HAL2     0.900000E-01   1.00800           0
      2036 MEMB     129      SAPS     C24      CTL2    -0.180000       12.0110           0
      2037 MEMB     129      SAPS     H4R      HAL2     0.900000E-01   1.00800           0
      2038 MEMB     129      SAPS     H4S      HAL2     0.900000E-01   1.00800           0
      2039 MEMB     129      SAPS     C25      CEL1    -0.150000       12.0110           0
      2040 MEMB     129      SAPS     H5R      HEL1     0.150000       1.00800           0
      2041 MEMB     129      SAPS     C26      CEL1    -0.150000       12.0110           0
      2042 MEMB     129      SAPS     H6R      HEL1     0.150000       1.00800           0
      2043 MEMB     129      SAPS     C27      CTL2    -0.180000       12.0110           0
      2044 MEMB     129      SAPS     H7R      HAL2     0.900000E-01   1.00800           0
      2045 MEMB     129      SAPS     H7S      HAL2     0.900000E-01   1.00800           0
      2046 MEMB     129      SAPS     C28      CEL1    -0.150000       12.0110           0
      2047 MEMB     129      SAPS     H8R      HEL1     0.150000       1.00800           0
      2048 MEMB     129      SAPS     C29      CEL1    -0.150000       12.0110           0
      2049 MEMB     129      SAPS     H9R      HEL1     0.150000       1.00800           0
      2050 MEMB     129      SAPS     C210     CTL2    -0.180000       12.0110           0
      2051 MEMB     129      SAPS     H10R     HAL2     0.900000E-01   1.00800           0
      2052 MEMB     129      SAPS     H10S     HAL2     0.900000E-01   1.00800           0
      2053 MEMB     129      SAPS     C211     CEL1    -0.150000       12.0110           0
      2054 MEMB     129      SAPS     H11R     HEL1     0.150000       1.00800           0
      2055 MEMB     129      SAPS     C212     CEL1    -0.150000       12.0110           0
      2056 MEMB     129      SAPS     H12R     HEL1     0.150000       1.00800           0
      2057 MEMB     129      SAPS     C213     CTL2    -0.180000       12.0110           0
      2058 MEMB     129      SAPS     H13R     HAL2     0.900000E-01   1.00800           0
      2059 MEMB     129      SAPS     H13S     HAL2     0.900000E-01   1.00800           0
      2060 MEMB     129      SAPS     C214     CEL1    -0.150000       12.0110           0
      2061 MEMB     129      SAPS     H14R     HEL1     0.150000       1.00800           0
      2062 MEMB     129      SAPS     C215     CEL1    -0.150000       12.0110           0
      2063 MEMB     129      SAPS     H15R     HEL1     0.150000       1.00800           0
      2064 MEMB     129      SAPS     C216     CTL2    -0.180000       12.0110           0
      2065 MEMB     129      SAPS     H16R     HAL2     0.900000E-01   1.00800           0
      2066 MEMB     129      SAPS     H16S     HAL2     0.900000E-01   1.00800           0
      2067 MEMB     129      SAPS     C217     CTL2    -0.180000       12.0110           0
      2068 MEMB     129      SAPS     H17R     HAL2     0.900000E-01   1.00800           0
      2069 MEMB     129      SAPS     H17S     HAL2     0.900000E-01   1.00800           0
      2070 MEMB     129      SAPS     C218     CTL2    -0.180000       12.0110           0
      2071 MEMB     129      SAPS     H18R     HAL2     0.900000E-01   1.00800           0
      2072 MEMB     129      SAPS     H18S     HAL2     0.900000E-01   1.00800           0
      2073 MEMB     129      SAPS     C219     CTL2    -0.180000       12.0110           0
      2074 MEMB     129      SAPS     H19R     HAL2     0.900000E-01   1.00800           0
      2075 MEMB     129      SAPS     H19S     HAL2     0.900000E-01   1.00800           0
      2076 MEMB     129      SAPS     C220     CTL3    -0.270000       12.0110           0
      2077 MEMB     129      SAPS     H20R     HAL3     0.900000E-01   1.00800           0
      2078 MEMB     129      SAPS     H20S     HAL3     0.900000E-01   1.00800           0
      2079 MEMB     129      SAPS     H20T     HAL3     0.900000E-01   1.00800           0
      2080 MEMB     129      SAPS     C33      CTL2    -0.180000       12.0110           0
      2081 MEMB     129      SAPS     H3X      HAL2     0.900000E-01   1.00800           0
      2082 MEMB     129      SAPS     H3Y      HAL2     0.900000E-01   1.00800           0
      2083 MEMB     129      SAPS     C34      CTL2    -0.180000       12.0110           0
      2084 MEMB     129      SAPS     H4X      HAL2     0.900000E-01   1.00800           0
      2085 MEMB     129      SAPS     H4Y      HAL2     0.900000E-01   1.00800           0
      2086 MEMB     129      SAPS     C35      CTL2    -0.180000       12.0110           0
      2087 MEMB     129      SAPS     H5X      HAL2     0.900000E-01   1.00800           0
      2088 MEMB     129      SAPS     H5Y      HAL2     0.900000E-01   1.00800           0
      2089 MEMB     129      SAPS     C36      CTL2    -0.180000       12.0110           0
      2090 MEMB     129      SAPS     H6X      HAL2     0.900000E-01   1.00800           0
      2091 MEMB     129      SAPS     H6Y      HAL2     0.900000E-01   1.00800           0
      2092 MEMB     129      SAPS     C37      CTL2    -0.180000       12.0110           0
      2093 MEMB     129      SAPS     H7X      HAL2     0.900000E-01   1.00800           0
      2094 MEMB     129      SAPS     H7Y      HAL2     0.900000E-01   1.00800           0
      2095 MEMB     129      SAPS     C38      CTL2    -0.180000       12.0110           0
      2096 MEMB     129      SAPS     H8X      HAL2     0.900000E-01   1.00800           0
      2097 MEMB     129      SAPS     H8Y      HAL2     0.900000E-01   1.00800           0
      2098 MEMB     129      SAPS     C39      CTL2    -0.180000       12.0110           0
      2099 MEMB     129      SAPS     H9X      HAL2     0.900000E-01   1.00800           0
      2100 MEMB     129      SAPS     H9Y      HAL2     0.900000E-01   1.00800           0
      2101 MEMB     129      SAPS     C310     CTL2    -0.180000       12.0110           0
      2102 MEMB     129      SAPS     H10X     HAL2     0.900000E-01   1.00800           0
      2103 MEMB     129      SAPS     H10Y     HAL2     0.900000E-01   1.00800           0
      2104 MEMB     129      SAPS     C311     CTL2    -0.180000       12.0110           0
      2105 MEMB     129      SAPS     H11X     HAL2     0.900000E-01   1.00800           0
      2106 MEMB     129      SAPS     H11Y     HAL2     0.900000E-01   1.00800           0
      2107 MEMB     129      SAPS     C312     CTL2    -0.180000       12.0110           0
      2108 MEMB     129      SAPS     H12X     HAL2     0.900000E-01   1.00800           0
      2109 MEMB     129      SAPS     H12Y     HAL2     0.900000E-01   1.00800           0
      2110 MEMB     129      SAPS     C313     CTL2    -0.180000       12.0110           0
      2111 MEMB     129      SAPS     H13X     HAL2     0.900000E-01   1.00800           0
      2112 MEMB     129      SAPS     H13Y     HAL2     0.900000E-01   1.00800           0
      2113 MEMB     129      SAPS     C314     CTL2    -0.180000       12.0110           0
      2114 MEMB     129      SAPS     H14X     HAL2     0.900000E-01   1.00800           0
      2115 MEMB     129      SAPS     H14Y     HAL2     0.900000E-01   1.00800           0
      2116 MEMB     129      SAPS     C315     CTL2    -0.180000       12.0110           0
      2117 MEMB     129      SAPS     H15X     HAL2     0.900000E-01   1.00800           0
      2118 MEMB     129      SAPS     H15Y     HAL2     0.900000E-01   1.00800           0
      2119 MEMB     129      SAPS     C316     CTL2    -0.180000       12.0110           0
      2120 MEMB     129      SAPS     H16X     HAL2     0.900000E-01   1.00800           0
      2121 MEMB     129      SAPS     H16Y     HAL2     0.900000E-01   1.00800           0
      2122 MEMB     129      SAPS     C317     CTL2    -0.180000       12.0110           0
      2123 MEMB     129      SAPS     H17X     HAL2     0.900000E-01   1.00800           0
      2124 MEMB     129      SAPS     H17Y     HAL2     0.900000E-01   1.00800           0
      2125 MEMB     129      SAPS     C318     CTL3    -0.270000       12.0110           0
      2126 MEMB     129      SAPS     H18X     HAL3     0.900000E-01   1.00800           0
      2127 MEMB     129      SAPS     H18Y     HAL3     0.900000E-01   1.00800           0
      2128 MEMB     129      SAPS     H18Z     HAL3     0.900000E-01   1.00800           0
      2129 MEMB     138      SAPS     N        NH3L    -0.300000       14.0070           0
      2130 MEMB     138      SAPS     HN1      HCL      0.330000       1.00800           0
      2131 MEMB     138      SAPS     HN2      HCL      0.330000       1.00800           0
      2132 MEMB     138      SAPS     HN3      HCL      0.330000       1.00800           0
      2133 MEMB     138      SAPS     C12      CTL1     0.210000       12.0110           0
      2134 MEMB     138      SAPS     H12A     HBL      0.100000       1.00800           0
      2135 MEMB     138      SAPS     C13      CCL      0.340000       12.0110           0
      2136 MEMB     138      SAPS     O13A     OCL     -0.670000       15.9994           0
      2137 MEMB     138      SAPS     O13B     OCL     -0.670000       15.9994           0
      2138 MEMB     138      SAPS     C11      CTL2    -0.800000E-01   12.0110           0
      2139 MEMB     138      SAPS     H11A     HAL2     0.900000E-01   1.00800           0
      2140 MEMB     138      SAPS     H11B     HAL2     0.900000E-01   1.00800           0
      2141 MEMB     138      SAPS     P        PL       1.500000       30.9740           0
      2142 MEMB     138      SAPS     O13      O2L     -0.780000       15.9994           0
      2143 MEMB     138      SAPS     O14      O2L     -0.780000       15.9994           0
      2144 MEMB     138      SAPS     O12      OSLP    -0.570000       15.9994           0
      2145 MEMB     138      SAPS     O11      OSLP    -0.570000       15.9994           0
      2146 MEMB     138      SAPS     C1       CTL2    -0.800000E-01   12.0110           0
      2147 MEMB     138      SAPS     HA       HAL2     0.900000E-01   1.00800           0
      2148 MEMB     138      SAPS     HB       HAL2     0.900000E-01   1.00800           0
      2149 MEMB     138      SAPS     C2       CTL1     0.170000       12.0110           0
      2150 MEMB     138      SAPS     HS       HAL1     0.900000E-01   1.00800           0
      2151 MEMB     138      SAPS     O21      OSL     -0.490000       15.9994           0
      2152 MEMB     138      SAPS     C21      CL       0.900000       12.0110           0
      2153 MEMB     138      SAPS     O22      OBL     -0.630000       15.9994           0
      2154 MEMB     138      SAPS     C22      CTL2    -0.220000       12.0110           0
      2155 MEMB     138      SAPS     H2R      HAL2     0.900000E-01   1.00800           0
      2156 MEMB     138      SAPS     H2S      HAL2     0.900000E-01   1.00800           0
      2157 MEMB     138      SAPS     C3       CTL2     0.800000E-01   12.0110           0
      2158 MEMB     138      SAPS     HX       HAL2     0.900000E-01   1.00800           0
      2159 MEMB     138      SAPS     HY       HAL2     0.900000E-01   1.00800           0
      2160 MEMB     138      SAPS     O31      OSL     -0.490000       15.9994           0
      2161 MEMB     138      SAPS     C31      CL       0.900000       12.0110           0
      2162 MEMB     138      SAPS     O32      OBL     -0.630000       15.9994           0
      2163 MEMB     138      SAPS     C32      CTL2    -0.220000       12.0110           0
      2164 MEMB     138      SAPS     H2X      HAL2     0.900000E-01   1.00800           0
      2165 MEMB     138      SAPS     H2Y      HAL2     0.900000E-01   1.00800           0
      2166 MEMB     138      SAPS     C23      CTL2    -0.180000       12.0110           0
      2167 MEMB     138      SAPS     H3R      HAL2     0.900000E-01   1.00800           0
      2168 MEMB     138      SAPS     H3S      HAL2     0.900000E-01   1.00800           0
      2169 MEMB     138      SAPS     C24      CTL2    -0.180000       12.0110           0
      2170 MEMB     138      SAPS     H4R      HAL2     0.900000E-01   1.00800           0
      2171 MEMB     138      SAPS     H4S      HAL2     0.900000E-01   1.00800           0
      2172 MEMB     138      SAPS     C25      CEL1    -0.150000       12.0110           0
      2173 MEMB     138      SAPS     H5R      HEL1     0.150000       1.00800           0
      2174 MEMB     138      SAPS     C26      CEL1    -0.150000       12.0110           0
      2175 MEMB     138      SAPS     H6R      HEL1     0.150000       1.00800           0
      2176 MEMB     138      SAPS     C27      CTL2    -0.180000       12.0110           0
      2177 MEMB     138      SAPS     H7R      HAL2     0.900000E-01   1.00800           0
      2178 MEMB     138      SAPS     H7S      HAL2     0.900000E-01   1.00800           0
      2179 MEMB     138      SAPS     C28      CEL1    -0.150000       12.0110           0
      2180 MEMB     138      SAPS     H8R      HEL1     0.150000       1.00800           0
      2181 MEMB     138      SAPS     C29      CEL1    -0.150000       12.0110           0
      2182 MEMB     138      SAPS     H9R      HEL1     0.150000       1.00800           0
      2183 MEMB     138      SAPS     C210     CTL2    -0.180000       12.0110           0
      2184 MEMB     138      SAPS     H10R     HAL2     0.900000E-01   1.00800           0
      2185 MEMB     138      SAPS     H10S     HAL2     0.900000E-01   1.00800           0
      2186 MEMB     138      SAPS     C211     CEL1    -0.150000       12.0110           0
      2187 MEMB     138      SAPS     H11R     HEL1     0.150000       1.00800           0
      2188 MEMB     138      SAPS     C212     CEL1    -0.150000       12.0110           0
      2189 MEMB     138      SAPS     H12R     HEL1     0.150000       1.00800           0
      2190 MEMB     138      SAPS     C213     CTL2    -0.180000       12.0110           0
      2191 MEMB     138      SAPS     H13R     HAL2     0.900000E-01   1.00800           0
      2192 MEMB     138      SAPS     H13S     HAL2     0.900000E-01   1.00800           0
      2193 MEMB     138      SAPS     C214     CEL1    -0.150000       12.0110           0
      2194 MEMB     138      SAPS     H14R     HEL1     0.150000       1.00800           0
      2195 MEMB     138      SAPS     C215     CEL1    -0.150000       12.0110           0
      2196 MEMB     138      SAPS     H15R     HEL1     0.150000       1.00800           0
      2197 MEMB     138      SAPS     C216     CTL2    -0.180000       12.0110           0
      2198 MEMB     138      SAPS     H16R     HAL2     0.900000E-01   1.00800           0
      2199 MEMB     138      SAPS     H16S     HAL2     0.900000E-01   1.00800           0
      2200 MEMB     138      SAPS     C217     CTL2    -0.180000       12.0110           0
      2201 MEMB     138      SAPS     H17R     HAL2     0.900000E-01   1.00800           0
      2202 MEMB     138      SAPS     H17S     HAL2     0.900000E-01   1.00800           0
      2203 MEMB     138      SAPS     C218     CTL2    -0.180000       12.0110           0
      2204 MEMB     138      SAPS     H18R     HAL2     0.900000E-01   1.00800           0
      2205 MEMB     138      SAPS     H18S     HAL2     0.900000E-01   1.00800           0
      2206 MEMB     138      SAPS     C219     CTL2    -0.180000       12.0110           0
      2207 MEMB     138      SAPS     H19R     HAL2     0.900000E-01   1.00800           0
      2208 MEMB     138      SAPS     H19S     HAL2     0.900000E-01   1.00800           0
      2209 MEMB     138      SAPS     C220     CTL3    -0.270000       12.0110           0
      2210 MEMB     138      SAPS     H20R     HAL3     0.900000E-01   1.00800           0
      2211 MEMB     138      SAPS     H20S     HAL3     0.900000E-01   1.00800           0
      2212 MEMB     138      SAPS     H20T     HAL3     0.900000E-01   1.00800           0
      2213 MEMB     138      SAPS     C33      CTL2    -0.180000       12.0110           0
      2214 MEMB     138      SAPS     H3X      HAL2     0.900000E-01   1.00800           0
      2215 MEMB     138      SAPS     H3Y      HAL2     0.900000E-01   1.00800           0
      2216 MEMB     138      SAPS     C34      CTL2    -0.180000       12.0110           0
      2217 MEMB     138      SAPS     H4X      HAL2     0.900000E-01   1.00800           0
      2218 MEMB     138      SAPS     H4Y      HAL2     0.900000E-01   1.00800           0
      2219 MEMB     138      SAPS     C35      CTL2    -0.180000       12.0110           0
      2220 MEMB     138      SAPS     H5X      HAL2     0.900000E-01   1.00800           0
      2221 MEMB     138      SAPS     H5Y      HAL2     0.900000E-01   1.00800           0
      2222 MEMB     138      SAPS     C36      CTL2    -0.180000       12.0110           0
      2223 MEMB     138      SAPS     H6X      HAL2     0.900000E-01   1.00800           0
      2224 MEMB     138      SAPS     H6Y      HAL2     0.900000E-01   1.00800           0
      2225 MEMB     138      SAPS     C37      CTL2    -0.180000       12.0110           0
      2226 MEMB     138      SAPS     H7X      HAL2     0.900000E-01   1.00800           0
      2227 MEMB     138      SAPS     H7Y      HAL2     0.900000E-01   1.00800           0
      2228 MEMB     138      SAPS     C38      CTL2    -0.180000       12.0110           0
      2229 MEMB     138      SAPS     H8X      HAL2     0.900000E-01   1.00800           0
      2230 MEMB     138      SAPS     H8Y      HAL2     0.900000E-01   1.00800           0
      2231 MEMB     138      SAPS     C39      CTL2    -0.180000       12.0110           0
      2232 MEMB     138      SAPS     H9X      HAL2     0.900000E-01   1.00800           0
      2233 MEMB     138      SAPS     H9Y      HAL2     0.900000E-01   1.00800           0
      2234 MEMB     138      SAPS     C310     CTL2    -0.180000       12.0110           0
      2235 MEMB     138      SAPS     H10X     HAL2     0.900000E-01   1.00800           0
      2236 MEMB     138      SAPS     H10Y     HAL2     0.900000E-01   1.00800           0
      2237 MEMB     138      SAPS     C311     CTL2    -0.180000       12.0110           0
      2238 MEMB     138      SAPS     H11X     HAL2     0.900000E-01   1.00800           0
      2239 MEMB     138      SAPS     H11Y     HAL2     0.900000E-01   1.00800           0
      2240 MEMB     138      SAPS     C312     CTL2    -0.180000       12.0110           0
      2241 MEMB     138      SAPS     H12X     HAL2     0.900000E-01   1.00800           0
      2242 MEMB     138      SAPS     H12Y     HAL2     0.900000E-01   1.00800           0
      2243 MEMB     138      SAPS     C313     CTL2    -0.180000       12.0110           0
      2244 MEMB     138      SAPS     H13X     HAL2     0.900000E-01   1.00800           0
      2245 MEMB     138      SAPS     H13Y     HAL2     0.900000E-01   1.00800           0
      2246 MEMB     138      SAPS     C314     CTL2    -0.180000       12.0110           0
      2247 MEMB     138      SAPS     H14X     HAL2     0.900000E-01   1.00800           0
      2248 MEMB     138      SAPS     H14Y     HAL2     0.900000E-01   1.00800           0
      2249 MEMB     138      SAPS     C315     CTL2    -0.180000       12.0110           0
      2250 MEMB     138      SAPS     H15X     HAL2     0.900000E-01   1.00800           0
      2251 MEMB     138      SAPS     H15Y     HAL2     0.900000E-01   1.00800           0
      2252 MEMB     138      SAPS     C316     CTL2    -0.180000       12.0110           0
      2253 MEMB     138      SAPS     H16X     HAL2     0.900000E-01   1.00800           0
      2254 MEMB     138      SAPS     H16Y     HAL2     0.900000E-01   1.00800           0
      2255 MEMB     138      SAPS     C317     CTL2    -0.180000       12.0110           0
      2256 MEMB     138      SAPS     H17X     HAL2     0.900000E-01   1.00800           0
      2257 MEMB     138      SAPS     H17Y     HAL2     0.900000E-01   1.00800           0
      2258 MEMB     138      SAPS     C318     CTL3    -0.270000       12.0110           0
      2259 MEMB     138      SAPS     H18X     HAL3     0.900000E-01   1.00800           0
      2260 MEMB     138      SAPS     H18Y     HAL3     0.900000E-01   1.00800           0
      2261 MEMB     138      SAPS     H18Z     HAL3     0.900000E-01   1.00800           0
      2262 MEMB     154      SAPS     N        NH3L    -0.300000       14.0070           0
      2263 MEMB     154      SAPS     HN1      HCL      0.330000       1.00800           0
      2264 MEMB     154      SAPS     HN2      HCL      0.330000       1.00800           0
      2265 MEMB     154      SAPS     HN3      HCL      0.330000       1.00800           0
      2266 MEMB     154      SAPS     C12      CTL1     0.210000       12.0110           0
      2267 MEMB     154      SAPS     H12A     HBL      0.100000       1.00800           0
      2268 MEMB     154      SAPS     C13      CCL      0.340000       12.0110           0
      2269 MEMB     154      SAPS     O13A     OCL     -0.670000       15.9994           0
      2270 MEMB     154      SAPS     O13B     OCL     -0.670000       15.9994           0
      2271 MEMB     154      SAPS     C11      CTL2    -0.800000E-01   12.0110           0
      2272 MEMB     154      SAPS     H11A     HAL2     0.900000E-01   1.00800           0
      2273 MEMB     154      SAPS     H11B     HAL2     0.900000E-01   1.00800           0
      2274 MEMB     154      SAPS     P        PL       1.500000       30.9740           0
      2275 MEMB     154      SAPS     O13      O2L     -0.780000       15.9994           0
      2276 MEMB     154      SAPS     O14      O2L     -0.780000       15.9994           0
      2277 MEMB     154      SAPS     O12      OSLP    -0.570000       15.9994           0
      2278 MEMB     154      SAPS     O11      OSLP    -0.570000       15.9994           0
      2279 MEMB     154      SAPS     C1       CTL2    -0.800000E-01   12.0110           0
      2280 MEMB     154      SAPS     HA       HAL2     0.900000E-01   1.00800           0
      2281 MEMB     154      SAPS     HB       HAL2     0.900000E-01   1.00800           0
      2282 MEMB     154      SAPS     C2       CTL1     0.170000       12.0110           0
      2283 MEMB     154      SAPS     HS       HAL1     0.900000E-01   1.00800           0
      2284 MEMB     154      SAPS     O21      OSL     -0.490000       15.9994           0
      2285 MEMB     154      SAPS     C21      CL       0.900000       12.0110           0
      2286 MEMB     154      SAPS     O22      OBL     -0.630000       15.9994           0
      2287 MEMB     154      SAPS     C22      CTL2    -0.220000       12.0110           0
      2288 MEMB     154      SAPS     H2R      HAL2     0.900000E-01   1.00800           0
      2289 MEMB     154      SAPS     H2S      HAL2     0.900000E-01   1.00800           0
      2290 MEMB     154      SAPS     C3       CTL2     0.800000E-01   12.0110           0
      2291 MEMB     154      SAPS     HX       HAL2     0.900000E-01   1.00800           0
      2292 MEMB     154      SAPS     HY       HAL2     0.900000E-01   1.00800           0
      2293 MEMB     154      SAPS     O31      OSL     -0.490000       15.9994           0
      2294 MEMB     154      SAPS     C31      CL       0.900000       12.0110           0
      2295 MEMB     154      SAPS     O32      OBL     -0.630000       15.9994           0
      2296 MEMB     154      SAPS     C32      CTL2    -0.220000       12.0110           0
      2297 MEMB     154      SAPS     H2X      HAL2     0.900000E-01   1.00800           0
      2298 MEMB     154      SAPS     H2Y      HAL2     0.900000E-01   1.00800           0
      2299 MEMB     154      SAPS     C23      CTL2    -0.180000       12.0110           0
      2300 MEMB     154      SAPS     H3R      HAL2     0.900000E-01   1.00800           0
      2301 MEMB     154      SAPS     H3S      HAL2     0.900000E-01   1.00800           0
      2302 MEMB     154      SAPS     C24      CTL2    -0.180000       12.0110           0
      2303 MEMB     154      SAPS     H4R      HAL2     0.900000E-01   1.00800           0
      2304 MEMB     154      SAPS     H4S      HAL2     0.900000E-01   1.00800           0
      2305 MEMB     154      SAPS     C25      CEL1    -0.150000       12.0110           0
      2306 MEMB     154      SAPS     H5R      HEL1     0.150000       1.00800           0
      2307 MEMB     154      SAPS     C26      CEL1    -0.150000       12.0110           0
      2308 MEMB     154      SAPS     H6R      HEL1     0.150000       1.00800           0
      2309 MEMB     154      SAPS     C27      CTL2    -0.180000       12.0110           0
      2310 MEMB     154      SAPS     H7R      HAL2     0.900000E-01   1.00800           0
      2311 MEMB     154      SAPS     H7S      HAL2     0.900000E-01   1.00800           0
      2312 MEMB     154      SAPS     C28      CEL1    -0.150000       12.0110           0
      2313 MEMB     154      SAPS     H8R      HEL1     0.150000       1.00800           0
      2314 MEMB     154      SAPS     C29      CEL1    -0.150000       12.0110           0
      2315 MEMB     154      SAPS     H9R      HEL1     0.150000       1.00800           0
      2316 MEMB     154      SAPS     C210     CTL2    -0.180000       12.0110           0
      2317 MEMB     154      SAPS     H10R     HAL2     0.900000E-01   1.00800           0
      2318 MEMB     154      SAPS     H10S     HAL2     0.900000E-01   1.00800           0
      2319 MEMB     154      SAPS     C211     CEL1    -0.150000       12.0110           0
      2320 MEMB     154      SAPS     H11R     HEL1     0.150000       1.00800           0
      2321 MEMB     154      SAPS     C212     CEL1    -0.150000       12.0110           0
      2322 MEMB     154      SAPS     H12R     HEL1     0.150000       1.00800           0
      2323 MEMB     154      SAPS     C213     CTL2    -0.180000       12.0110           0
      2324 MEMB     154      SAPS     H13R     HAL2     0.900000E-01   1.00800           0
      2325 MEMB     154      SAPS     H13S     HAL2     0.900000E-01   1.00800           0
      2326 MEMB     154      SAPS     C214     CEL1    -0.150000       12.0110           0
      2327 MEMB     154      SAPS     H14R     HEL1     0.150000       1.00800           0
      2328 MEMB     154      SAPS     C215     CEL1    -0.150000       12.0110           0
      2329 MEMB     154      SAPS     H15R     HEL1     0.150000       1.00800           0
      2330 MEMB     154      SAPS     C216     CTL2    -0.180000       12.0110           0
      2331 MEMB     154      SAPS     H16R     HAL2     0.900000E-01   1.00800           0
      2332 MEMB     154      SAPS     H16S     HAL2     0.900000E-01   1.00800           0
      2333 MEMB     154      SAPS     C217     CTL2    -0.180000       12.0110           0
      2334 MEMB     154      SAPS     H17R     HAL2     0.900000E-01   1.00800           0
      2335 MEMB     154      SAPS     H17S     HAL2     0.900000E-01   1.00800           0
      2336 MEMB     154      SAPS     C218     CTL2    -0.180000       12.0110           0
      2337 MEMB     154      SAPS     H18R     HAL2     0.900000E-01   1.00800           0
      2338 MEMB     154      SAPS     H18S     HAL2     0.900000E-01   1.00800           0
      2339 MEMB     154      SAPS     C219     CTL2    -0.180000       12.0110           0
      2340 MEMB     154      SAPS     H19R     HAL2     0.900000E-01   1.00800           0
      2341 MEMB     154      SAPS     H19S     HAL2     0.900000E-01   1.00800           0
      2342 MEMB     154      SAPS     C220     CTL3    -0.270000       12.0110           0
      2343 MEMB     154      SAPS     H20R     HAL3     0.900000E-01   1.00800           0
      2344 MEMB     154      SAPS     H20S     HAL3     0.900000E-01   1.00800           0
      2345 MEMB     154      SAPS     H20T     HAL3     0.900000E-01   1.00800           0
      2346 MEMB     154      SAPS     C33      CTL2    -0.180000       12.0110           0
      2347 MEMB     154      SAPS     H3X      HAL2     0.900000E-01   1.00800           0
      2348 MEMB     154      SAPS     H3Y      HAL2     0.900000E-01   1.00800           0
      2349 MEMB     154      SAPS     C34      CTL2    -0.180000       12.0110           0
      2350 MEMB     154      SAPS     H4X      HAL2     0.900000E-01   1.00800           0
      2351 MEMB     154      SAPS     H4Y      HAL2     0.900000E-01   1.00800           0
      2352 MEMB     154      SAPS     C35      CTL2    -0.180000       12.0110           0
      2353 MEMB     154      SAPS     H5X      HAL2     0.900000E-01   1.00800           0
      2354 MEMB     154      SAPS     H5Y      HAL2     0.900000E-01   1.00800           0
      2355 MEMB     154      SAPS     C36      CTL2    -0.180000       12.0110           0
      2356 MEMB     154      SAPS     H6X      HAL2     0.900000E-01   1.00800           0
      2357 MEMB     154      SAPS     H6Y      HAL2     0.900000E-01   1.00800           0
      2358 MEMB     154      SAPS     C37      CTL2    -0.180000       12.0110           0
      2359 MEMB     154      SAPS     H7X      HAL2     0.900000E-01   1.00800           0
      2360 MEMB     154      SAPS     H7Y      HAL2     0.900000E-01   1.00800           0
      2361 MEMB     154      SAPS     C38      CTL2    -0.180000       12.0110           0
      2362 MEMB     154      SAPS     H8X      HAL2     0.900000E-01   1.00800           0
      2363 MEMB     154      SAPS     H8Y      HAL2     0.900000E-01   1.00800           0
      2364 MEMB     154      SAPS     C39      CTL2    -0.180000       12.0110           0
      2365 MEMB     154      SAPS     H9X      HAL2     0.900000E-01   1.00800           0
      2366 MEMB     154      SAPS     H9Y      HAL2     0.900000E-01   1.00800           0
      2367 MEMB     154      SAPS     C310     CTL2    -0.180000       12.0110           0
      2368 MEMB     154      SAPS     H10X     HAL2     0.900000E-01   1.00800           0
      2369 MEMB     154      SAPS     H10Y     HAL2     0.900000E-01   1.00800           0
      2370 MEMB     154      SAPS     C311     CTL2    -0.180000       12.0110           0
      2371 MEMB     154      SAPS     H11X     HAL2     0.900000E-01   1.00800           0
      2372 MEMB     154      SAPS     H11Y     HAL2     0.900000E-01   1.00800           0
      2373 MEMB     154      SAPS     C312     CTL2    -0.180000       12.0110           0
      2374 MEMB     154      SAPS     H12X     HAL2     0.900000E-01   1.00800           0
      2375 MEMB     154      SAPS     H12Y     HAL2     0.900000E-01   1.00800           0
      2376 MEMB     154      SAPS     C313     CTL2    -0.180000       12.0110           0
      2377 MEMB     154      SAPS     H13X     HAL2     0.900000E-01   1.00800           0
      2378 MEMB     154      SAPS     H13Y     HAL2     0.900000E-01   1.00800           0
      2379 MEMB     154      SAPS     C314     CTL2    -0.180000       12.0110           0
      2380 MEMB     154      SAPS     H14X     HAL2     0.900000E-01   1.00800           0
      2381 MEMB     154      SAPS     H14Y     HAL2     0.900000E-01   1.00800           0
      2382 MEMB     154      SAPS     C315     CTL2    -0.180000       12.0110           0
      2383 MEMB     154      SAPS     H15X     HAL2     0.900000E-01   1.00800           0
      2384 MEMB     154      SAPS     H15Y     HAL2     0.900000E-01   1.00800           0
      2385 MEMB     154      SAPS     C316     CTL2    -0.180000       12.0110           0
      2386 MEMB     154      SAPS     H16X     HAL2     0.900000E-01   1.00800           0
      2387 MEMB     154      SAPS     H16Y     HAL2     0.900000E-01   1.00800           0
      2388 MEMB     154      SAPS     C317     CTL2    -0.180000       12.0110           0
      2389 MEMB     154      SAPS     H17X     HAL2     0.900000E-01   1.00800           0
      2390 MEMB     154      SAPS     H17Y     HAL2     0.900000E-01   1.00800           0
      2391 MEMB     154      SAPS     C318     CTL3    -0.270000       12.0110           0
      2392 MEMB     154      SAPS     H18X     HAL3     0.900000E-01   1.00800           0
      2393 MEMB     154      SAPS     H18Y     HAL3     0.900000E-01   1.00800           0
      2394 MEMB     154      SAPS     H18Z     HAL3     0.900000E-01   1.00800           0
      2395 MEMB     166      SAPS     N        NH3L    -0.300000       14.0070           0
      2396 MEMB     166      SAPS     HN1      HCL      0.330000       1.00800           0
      2397 MEMB     166      SAPS     HN2      HCL      0.330000       1.00800           0
      2398 MEMB     166      SAPS     HN3      HCL      0.330000       1.00800           0
      2399 MEMB     166      SAPS     C12      CTL1     0.210000       12.0110           0
      2400 MEMB     166      SAPS     H12A     HBL      0.100000       1.00800           0
      2401 MEMB     166      SAPS     C13      CCL      0.340000       12.0110           0
      2402 MEMB     166      SAPS     O13A     OCL     -0.670000       15.9994           0
      2403 MEMB     166      SAPS     O13B     OCL     -0.670000       15.9994           0
      2404 MEMB     166      SAPS     C11      CTL2    -0.800000E-01   12.0110           0
      2405 MEMB     166      SAPS     H11A     HAL2     0.900000E-01   1.00800           0
      2406 MEMB     166      SAPS     H11B     HAL2     0.900000E-01   1.00800           0
      2407 MEMB     166      SAPS     P        PL       1.500000       30.9740           0
      2408 MEMB     166      SAPS     O13      O2L     -0.780000       15.9994           0
      2409 MEMB     166      SAPS     O14      O2L     -0.780000       15.9994           0
      2410 MEMB     166      SAPS     O12      OSLP    -0.570000       15.9994           0
      2411 MEMB     166      SAPS     O11      OSLP    -0.570000       15.9994           0
      2412 MEMB     166      SAPS     C1       CTL2    -0.800000E-01   12.0110           0
      2413 MEMB     166      SAPS     HA       HAL2     0.900000E-01   1.00800           0
      2414 MEMB     166      SAPS     HB       HAL2     0.900000E-01   1.00800           0
      2415 MEMB     166      SAPS     C2       CTL1     0.170000       12.0110           0
      2416 MEMB     166      SAPS     HS       HAL1     0.900000E-01   1.00800           0
      2417 MEMB     166      SAPS     O21      OSL     -0.490000       15.9994           0
      2418 MEMB     166      SAPS     C21      CL       0.900000       12.0110           0
      2419 MEMB     166      SAPS     O22      OBL     -0.630000       15.9994           0
      2420 MEMB     166      SAPS     C22      CTL2    -0.220000       12.0110           0
      2421 MEMB     166      SAPS     H2R      HAL2     0.900000E-01   1.00800           0
      2422 MEMB     166      SAPS     H2S      HAL2     0.900000E-01   1.00800           0
      2423 MEMB     166      SAPS     C3       CTL2     0.800000E-01   12.0110           0
      2424 MEMB     166      SAPS     HX       HAL2     0.900000E-01   1.00800           0
      2425 MEMB     166      SAPS     HY       HAL2     0.900000E-01   1.00800           0
      2426 MEMB     166      SAPS     O31      OSL     -0.490000       15.9994           0
      2427 MEMB     166      SAPS     C31      CL       0.900000       12.0110           0
      2428 MEMB     166      SAPS     O32      OBL     -0.630000       15.9994           0
      2429 MEMB     166      SAPS     C32      CTL2    -0.220000       12.0110           0
      2430 MEMB     166      SAPS     H2X      HAL2     0.900000E-01   1.00800           0
      2431 MEMB     166      SAPS     H2Y      HAL2     0.900000E-01   1.00800           0
      2432 MEMB     166      SAPS     C23      CTL2    -0.180000       12.0110           0
      2433 MEMB     166      SAPS     H3R      HAL2     0.900000E-01   1.00800           0
      2434 MEMB     166      SAPS     H3S      HAL2     0.900000E-01   1.00800           0
      2435 MEMB     166      SAPS     C24      CTL2    -0.180000       12.0110           0
      2436 MEMB     166      SAPS     H4R      HAL2     0.900000E-01   1.00800           0
      2437 MEMB     166      SAPS     H4S      HAL2     0.900000E-01   1.00800           0
      2438 MEMB     166      SAPS     C25      CEL1    -0.150000       12.0110           0
      2439 MEMB     166      SAPS     H5R      HEL1     0.150000       1.00800           0
      2440 MEMB     166      SAPS     C26      CEL1    -0.150000       12.0110           0
      2441 MEMB     166      SAPS     H6R      HEL1     0.150000       1.00800           0
      2442 MEMB     166      SAPS     C27      CTL2    -0.180000       12.0110           0
      2443 MEMB     166      SAPS     H7R      HAL2     0.900000E-01   1.00800           0
      2444 MEMB     166      SAPS     H7S      HAL2     0.900000E-01   1.00800           0
      2445 MEMB     166      SAPS     C28      CEL1    -0.150000       12.0110           0
      2446 MEMB     166      SAPS     H8R      HEL1     0.150000       1.00800           0
      2447 MEMB     166      SAPS     C29      CEL1    -0.150000       12.0110           0
      2448 MEMB     166      SAPS     H9R      HEL1     0.150000       1.00800           0
      2449 MEMB     166      SAPS     C210     CTL2    -0.180000       12.0110           0
      2450 MEMB     166      SAPS     H10R     HAL2     0.900000E-01   1.00800           0
      2451 MEMB     166      SAPS     H10S     HAL2     0.900000E-01   1.00800           0
      2452 MEMB     166      SAPS     C211     CEL1    -0.150000       12.0110           0
      2453 MEMB     166      SAPS     H11R     HEL1     0.150000       1.00800           0
      2454 MEMB     166      SAPS     C212     CEL1    -0.150000       12.0110           0
      2455 MEMB     166      SAPS     H12R     HEL1     0.150000       1.00800           0
      2456 MEMB     166      SAPS     C213     CTL2    -0.180000       12.0110           0
      2457 MEMB     166      SAPS     H13R     HAL2     0.900000E-01   1.00800           0
      2458 MEMB     166      SAPS     H13S     HAL2     0.900000E-01   1.00800           0
      2459 MEMB     166      SAPS     C214     CEL1    -0.150000       12.0110           0
      2460 MEMB     166      SAPS     H14R     HEL1     0.150000       1.00800           0
      2461 MEMB     166      SAPS     C215     CEL1    -0.150000       12.0110           0
      2462 MEMB     166      SAPS     H15R     HEL1     0.150000       1.00800           0
      2463 MEMB     166      SAPS     C216     CTL2    -0.180000       12.0110           0
      2464 MEMB     166      SAPS     H16R     HAL2     0.900000E-01   1.00800           0
      2465 MEMB     166      SAPS     H16S     HAL2     0.900000E-01   1.00800           0
      2466 MEMB     166      SAPS     C217     CTL2    -0.180000       12.0110           0
      2467 MEMB     166      SAPS     H17R     HAL2     0.900000E-01   1.00800           0
      2468 MEMB     166      SAPS     H17S     HAL2     0.900000E-01   1.00800           0
      2469 MEMB     166      SAPS     C218     CTL2    -0.180000       12.0110           0
      2470 MEMB     166      SAPS     H18R     HAL2     0.900000E-01   1.00800           0
      2471 MEMB     166      SAPS     H18S     HAL2     0.900000E-01   1.00800           0
      2472 MEMB     166      SAPS     C219     CTL2    -0.180000       12.0110           0
      2473 MEMB     166      SAPS     H19R     HAL2     0.900000E-01   1.00800           0
      2474 MEMB     166      SAPS     H19S     HAL2     0.900000E-01   1.00800           0
      2475 MEMB     166      SAPS     C220     CTL3    -0.270000       12.0110           0
      2476 MEMB     166      SAPS     H20R     HAL3     0.900000E-01   1.00800           0
      2477 MEMB     166      SAPS     H20S     HAL3     0.900000E-01   1.00800           0
      2478 MEMB     166      SAPS     H20T     HAL3     0.900000E-01   1.00800           0
      2479 MEMB     166      SAPS     C33      CTL2    -0.180000       12.0110           0
      2480 MEMB     166      SAPS     H3X      HAL2     0.900000E-01   1.00800           0
      2481 MEMB     166      SAPS     H3Y      HAL2     0.900000E-01   1.00800           0
      2482 MEMB     166      SAPS     C34      CTL2    -0.180000       12.0110           0
      2483 MEMB     166      SAPS     H4X      HAL2     0.900000E-01   1.00800           0
      2484 MEMB     166      SAPS     H4Y      HAL2     0.900000E-01   1.00800           0
      2485 MEMB     166      SAPS     C35      CTL2    -0.180000       12.0110           0
      2486 MEMB     166      SAPS     H5X      HAL2     0.900000E-01   1.00800           0
      2487 MEMB     166      SAPS     H5Y      HAL2     0.900000E-01   1.00800           0
      2488 MEMB     166      SAPS     C36      CTL2    -0.180000       12.0110           0
      2489 MEMB     166      SAPS     H6X      HAL2     0.900000E-01   1.00800           0
      2490 MEMB     166      SAPS     H6Y      HAL2     0.900000E-01   1.00800           0
      2491 MEMB     166      SAPS     C37      CTL2    -0.180000       12.0110           0
      2492 MEMB     166      SAPS     H7X      HAL2     0.900000E-01   1.00800           0
      2493 MEMB     166      SAPS     H7Y      HAL2     0.900000E-01   1.00800           0
      2494 MEMB     166      SAPS     C38      CTL2    -0.180000       12.0110           0
      2495 MEMB     166      SAPS     H8X      HAL2     0.900000E-01   1.00800           0
      2496 MEMB     166      SAPS     H8Y      HAL2     0.900000E-01   1.00800           0
      2497 MEMB     166      SAPS     C39      CTL2    -0.180000       12.0110           0
      2498 MEMB     166      SAPS     H9X      HAL2     0.900000E-01   1.00800           0
      2499 MEMB     166      SAPS     H9Y      HAL2     0.900000E-01   1.00800           0
      2500 MEMB     166      SAPS     C310     CTL2    -0.180000       12.0110           0
      2501 MEMB     166      SAPS     H10X     HAL2     0.900000E-01   1.00800           0
      2502 MEMB     166      SAPS     H10Y     HAL2     0.900000E-01   1.00800           0
      2503 MEMB     166      SAPS     C311     CTL2    -0.180000       12.0110           0
      2504 MEMB     166      SAPS     H11X     HAL2     0.900000E-01   1.00800           0
      2505 MEMB     166      SAPS     H11Y     HAL2     0.900000E-01   1.00800           0
      2506 MEMB     166      SAPS     C312     CTL2    -0.180000       12.0110           0
      2507 MEMB     166      SAPS     H12X     HAL2     0.900000E-01   1.00800           0
      2508 MEMB     166      SAPS     H12Y     HAL2     0.900000E-01   1.00800           0
      2509 MEMB     166      SAPS     C313     CTL2    -0.180000       12.0110           0
      2510 MEMB     166      SAPS     H13X     HAL2     0.900000E-01   1.00800           0
      2511 MEMB     166      SAPS     H13Y     HAL2     0.900000E-01   1.00800           0
      2512 MEMB     166      SAPS     C314     CTL2    -0.180000       12.0110           0
      2513 MEMB     166      SAPS     H14X     HAL2     0.900000E-01   1.00800           0
      2514 MEMB     166      SAPS     H14Y     HAL2     0.900000E-01   1.00800           0
      2515 MEMB     166      SAPS     C315     CTL2    -0.180000       12.0110           0
      2516 MEMB     166      SAPS     H15X     HAL2     0.900000E-01   1.00800           0
      2517 MEMB     166      SAPS     H15Y     HAL2     0.900000E-01   1.00800           0
      2518 MEMB     166      SAPS     C316     CTL2    -0.180000       12.0110           0
      2519 MEMB     166      SAPS     H16X     HAL2     0.900000E-01   1.00800           0
      2520 MEMB     166      SAPS     H16Y     HAL2     0.900000E-01   1.00800           0
      2521 MEMB     166      SAPS     C317     CTL2    -0.180000       12.0110           0
      2522 MEMB     166      SAPS     H17X     HAL2     0.900000E-01   1.00800           0
      2523 MEMB     166      SAPS     H17Y     HAL2     0.900000E-01   1.00800           0
      2524 MEMB     166      SAPS     C318     CTL3    -0.270000       12.0110           0
      2525 MEMB     166      SAPS     H18X     HAL3     0.900000E-01   1.00800           0
      2526 MEMB     166      SAPS     H18Y     HAL3     0.900000E-01   1.00800           0
      2527 MEMB     166      SAPS     H18Z     HAL3     0.900000E-01   1.00800           0
      2528 MEMB     168      SAPS     N        NH3L    -0.300000       14.0070           0
      2529 MEMB     168      SAPS     HN1      HCL      0.330000       1.00800           0
      2530 MEMB     168      SAPS     HN2      HCL      0.330000       1.00800           0
      2531 MEMB     168      SAPS     HN3      HCL      0.330000       1.00800           0
      2532 MEMB     168      SAPS     C12      CTL1     0.210000       12.0110           0
      2533 MEMB     168      SAPS     H12A     HBL      0.100000       1.00800           0
      2534 MEMB     168      SAPS     C13      CCL      0.340000       12.0110           0
      2535 MEMB     168      SAPS     O13A     OCL     -0.670000       15.9994           0
      2536 MEMB     168      SAPS     O13B     OCL     -0.670000       15.9994           0
      2537 MEMB     168      SAPS     C11      CTL2    -0.800000E-01   12.0110           0
      2538 MEMB     168      SAPS     H11A     HAL2     0.900000E-01   1.00800           0
      2539 MEMB     168      SAPS     H11B     HAL2     0.900000E-01   1.00800           0
      2540 MEMB     168      SAPS     P        PL       1.500000       30.9740           0
      2541 MEMB     168      SAPS     O13      O2L     -0.780000       15.9994           0
      2542 MEMB     168      SAPS     O14      O2L     -0.780000       15.9994           0
      2543 MEMB     168      SAPS     O12      OSLP    -0.570000       15.9994           0
      2544 MEMB     168      SAPS     O11      OSLP    -0.570000       15.9994           0
      2545 MEMB     168      SAPS     C1       CTL2    -0.800000E-01   12.0110           0
      2546 MEMB     168      SAPS     HA       HAL2     0.900000E-01   1.00800           0
      2547 MEMB     168      SAPS     HB       HAL2     0.900000E-01   1.00800           0
      2548 MEMB     168      SAPS     C2       CTL1     0.170000       12.0110           0
      2549 MEMB     168      SAPS     HS       HAL1     0.900000E-01   1.00800           0
      2550 MEMB     168      SAPS     O21      OSL     -0.490000       15.9994           0
      2551 MEMB     168      SAPS     C21      CL       0.900000       12.0110           0
      2552 MEMB     168      SAPS     O22      OBL     -0.630000       15.9994           0
      2553 MEMB     168      SAPS     C22      CTL2    -0.220000       12.0110           0
      2554 MEMB     168      SAPS     H2R      HAL2     0.900000E-01   1.00800           0
      2555 MEMB     168      SAPS     H2S      HAL2     0.900000E-01   1.00800           0
      2556 MEMB     168      SAPS     C3       CTL2     0.800000E-01   12.0110           0
      2557 MEMB     168      SAPS     HX       HAL2     0.900000E-01   1.00800           0
      2558 MEMB     168      SAPS     HY       HAL2     0.900000E-01   1.00800           0
      2559 MEMB     168      SAPS     O31      OSL     -0.490000       15.9994           0
      2560 MEMB     168      SAPS     C31      CL       0.900000       12.0110           0
      2561 MEMB     168      SAPS     O32      OBL     -0.630000       15.9994           0
      2562 MEMB     168      SAPS     C32      CTL2    -0.220000       12.0110           0
      2563 MEMB     168      SAPS     H2X      HAL2     0.900000E-01   1.00800           0
      2564 MEMB     168      SAPS     H2Y      HAL2     0.900000E-01   1.00800           0
      2565 MEMB     168      SAPS     C23      CTL2    -0.180000       12.0110           0
      2566 MEMB     168      SAPS     H3R      HAL2     0.900000E-01   1.00800           0
      2567 MEMB     168      SAPS     H3S      HAL2     0.900000E-01   1.00800           0
      2568 MEMB     168      SAPS     C24      CTL2    -0.180000       12.0110           0
      2569 MEMB     168      SAPS     H4R      HAL2     0.900000E-01   1.00800           0
      2570 MEMB     168      SAPS     H4S      HAL2     0.900000E-01   1.00800           0
      2571 MEMB     168      SAPS     C25      CEL1    -0.150000       12.0110           0
      2572 MEMB     168      SAPS     H5R      HEL1     0.150000       1.00800           0
      2573 MEMB     168      SAPS     C26      CEL1    -0.150000       12.0110           0
      2574 MEMB     168      SAPS     H6R      HEL1     0.150000       1.00800           0
      2575 MEMB     168      SAPS     C27      CTL2    -0.180000       12.0110           0
      2576 MEMB     168      SAPS     H7R      HAL2     0.900000E-01   1.00800           0
      2577 MEMB     168      SAPS     H7S      HAL2     0.900000E-01   1.00800           0
      2578 MEMB     168      SAPS     C28      CEL1    -0.150000       12.0110           0
      2579 MEMB     168      SAPS     H8R      HEL1     0.150000       1.00800           0
      2580 MEMB     168      SAPS     C29      CEL1    -0.150000       12.0110           0
      2581 MEMB     168      SAPS     H9R      HEL1     0.150000       1.00800           0
      2582 MEMB     168      SAPS     C210     CTL2    -0.180000       12.0110           0
      2583 MEMB     168      SAPS     H10R     HAL2     0.900000E-01   1.00800           0
      2584 MEMB     168      SAPS     H10S     HAL2     0.900000E-01   1.00800           0
      2585 MEMB     168      SAPS     C211     CEL1    -0.150000       12.0110           0
      2586 MEMB     168      SAPS     H11R     HEL1     0.150000       1.00800           0
      2587 MEMB     168      SAPS     C212     CEL1    -0.150000       12.0110           0
      2588 MEMB     168      SAPS     H12R     HEL1     0.150000       1.00800           0
      2589 MEMB     168      SAPS     C213     CTL2    -0.180000       12.0110           0
      2590 MEMB     168      SAPS     H13R     HAL2     0.900000E-01   1.00800           0
      2591 MEMB     168      SAPS     H13S     HAL2     0.900000E-01   1.00800           0
      2592 MEMB     168      SAPS     C214     CEL1    -0.150000       12.0110           0
      2593 MEMB     168      SAPS     H14R     HEL1     0.150000       1.00800           0
      2594 MEMB     168      SAPS     C215     CEL1    -0.150000       12.0110           0
      2595 MEMB     168      SAPS     H15R     HEL1     0.150000       1.00800           0
      2596 MEMB     168      SAPS     C216     CTL2    -0.180000       12.0110           0
      2597 MEMB     168      SAPS     H16R     HAL2     0.900000E-01   1.00800           0
      2598 MEMB     168      SAPS     H16S     HAL2     0.900000E-01   1.00800           0
      2599 MEMB     168      SAPS     C217     CTL2    -0.180000       12.0110           0
      2600 MEMB     168      SAPS     H17R     HAL2     0.900000E-01   1.00800           0
      2601 MEMB     168      SAPS     H17S     HAL2     0.900000E-01   1.00800           0
      2602 MEMB     168      SAPS     C218     CTL2    -0.180000       12.0110           0
      2603 MEMB     168      SAPS     H18R     HAL2     0.900000E-01   1.00800           0
      2604 MEMB     168      SAPS     H18S     HAL2     0.900000E-01   1.00800           0
      2605 MEMB     168      SAPS     C219     CTL2    -0.180000       12.0110           0
      2606 MEMB     168      SAPS     H19R     HAL2     0.900000E-01   1.00800           0
      2607 MEMB     168      SAPS     H19S     HAL2     0.900000E-01   1.00800           0
      2608 MEMB     168      SAPS     C220     CTL3    -0.270000       12.0110           0
      2609 MEMB     168      SAPS     H20R     HAL3     0.900000E-01   1.00800           0
      2610 MEMB     168      SAPS     H20S     HAL3     0.900000E-01   1.00800           0
      2611 MEMB     168      SAPS     H20T     HAL3     0.900000E-01   1.00800           0
      2612 MEMB     168      SAPS     C33      CTL2    -0.180000       12.0110           0
      2613 MEMB     168      SAPS     H3X      HAL2     0.900000E-01   1.00800           0
      2614 MEMB     168      SAPS     H3Y      HAL2     0.900000E-01   1.00800           0
      2615 MEMB     168      SAPS     C34      CTL2    -0.180000       12.0110           0
      2616 MEMB     168      SAPS     H4X      HAL2     0.900000E-01   1.00800           0
      2617 MEMB     168      SAPS     H4Y      HAL2     0.900000E-01   1.00800           0
      2618 MEMB     168      SAPS     C35      CTL2    -0.180000       12.0110           0
      2619 MEMB     168      SAPS     H5X      HAL2     0.900000E-01   1.00800           0
      2620 MEMB     168      SAPS     H5Y      HAL2     0.900000E-01   1.00800           0
      2621 MEMB     168      SAPS     C36      CTL2    -0.180000       12.0110           0
      2622 MEMB     168      SAPS     H6X      HAL2     0.900000E-01   1.00800           0
      2623 MEMB     168      SAPS     H6Y      HAL2     0.900000E-01   1.00800           0
      2624 MEMB     168      SAPS     C37      CTL2    -0.180000       12.0110           0
      2625 MEMB     168      SAPS     H7X      HAL2     0.900000E-01   1.00800           0
      2626 MEMB     168      SAPS     H7Y      HAL2     0.900000E-01   1.00800           0
      2627 MEMB     168      SAPS     C38      CTL2    -0.180000       12.0110           0
      2628 MEMB     168      SAPS     H8X      HAL2     0.900000E-01   1.00800           0
      2629 MEMB     168      SAPS     H8Y      HAL2     0.900000E-01   1.00800           0
      2630 MEMB     168      SAPS     C39      CTL2    -0.180000       12.0110           0
      2631 MEMB     168      SAPS     H9X      HAL2     0.900000E-01   1.00800           0
      2632 MEMB     168      SAPS     H9Y      HAL2     0.900000E-01   1.00800           0
      2633 MEMB     168      SAPS     C310     CTL2    -0.180000       12.0110           0
      2634 MEMB     168      SAPS     H10X     HAL2     0.900000E-01   1.00800           0
      2635 MEMB     168      SAPS     H10Y     HAL2     0.900000E-01   1.00800           0
      2636 MEMB     168      SAPS     C311     CTL2    -0.180000       12.0110           0
      2637 MEMB     168      SAPS     H11X     HAL2     0.900000E-01   1.00800           0
      2638 MEMB     168      SAPS     H11Y     HAL2     0.900000E-01   1.00800           0
      2639 MEMB     168      SAPS     C312     CTL2    -0.180000       12.0110           0
      2640 MEMB     168      SAPS     H12X     HAL2     0.900000E-01   1.00800           0
      2641 MEMB     168      SAPS     H12Y     HAL2     0.900000E-01   1.00800           0
      2642 MEMB     168      SAPS     C313     CTL2    -0.180000       12.0110           0
      2643 MEMB     168      SAPS     H13X     HAL2     0.900000E-01   1.00800           0
      2644 MEMB     168      SAPS     H13Y     HAL2     0.900000E-01   1.00800           0
      2645 MEMB     168      SAPS     C314     CTL2    -0.180000       12.0110           0
      2646 MEMB     168      SAPS     H14X     HAL2     0.900000E-01   1.00800           0
      2647 MEMB     168      SAPS     H14Y     HAL2     0.900000E-01   1.00800           0
      2648 MEMB     168      SAPS     C315     CTL2    -0.180000       12.0110           0
      2649 MEMB     168      SAPS     H15X     HAL2     0.900000E-01   1.00800           0
      2650 MEMB     168      SAPS     H15Y     HAL2     0.900000E-01   1.00800           0
      2651 MEMB     168      SAPS     C316     CTL2    -0.180000       12.0110           0
      2652 MEMB     168      SAPS     H16X     HAL2     0.900000E-01   1.00800           0
      2653 MEMB     168      SAPS     H16Y     HAL2     0.900000E-01   1.00800           0
      2654 MEMB     168      SAPS     C317     CTL2    -0.180000       12.0110           0
      2655 MEMB     168      SAPS     H17X     HAL2     0.900000E-01   1.00800           0
      2656 MEMB     168      SAPS     H17Y     HAL2     0.900000E-01   1.00800           0
      2657 MEMB     168      SAPS     C318     CTL3    -0.270000       12.0110           0
      2658 MEMB     168      SAPS     H18X     HAL3     0.900000E-01   1.00800           0
      2659 MEMB     168      SAPS     H18Y     HAL3     0.900000E-01   1.00800           0
      2660 MEMB     168      SAPS     H18Z     HAL3     0.900000E-01   1.00800           0
      2661 MEMB     2        CHL1     C3       CRL1     0.140000       12.0110           0
      2662 MEMB     2        CHL1     H3       HGA1     0.900000E-01   1.00800           0
      2663 MEMB     2        CHL1     O3       OHL     -0.660000       15.9994           0
      2664 MEMB     2        CHL1     H3'      HOL      0.430000       1.00800           0
      2665 MEMB     2        CHL1     C4       CRL2    -0.180000       12.0110           0
      2666 MEMB     2        CHL1     H4A      HGA2     0.900000E-01   1.00800           0
      2667 MEMB     2        CHL1     H4B      HGA2     0.900000E-01   1.00800           0
      2668 MEMB     2        CHL1     C5       CEL1     0.000000       12.0110           0
      2669 MEMB     2        CHL1     C6       CEL1    -0.150000       12.0110           0
      2670 MEMB     2        CHL1     H6       HEL1     0.150000       1.00800           0
      2671 MEMB     2        CHL1     C7       CRL2    -0.180000       12.0110           0
      2672 MEMB     2        CHL1     H7A      HGA2     0.900000E-01   1.00800           0
      2673 MEMB     2        CHL1     H7B      HGA2     0.900000E-01   1.00800           0
      2674 MEMB     2        CHL1     C8       CRL1    -0.900000E-01   12.0110           0
      2675 MEMB     2        CHL1     H8       HGA1     0.900000E-01   1.00800           0
      2676 MEMB     2        CHL1     C14      CRL1    -0.900000E-01   12.0110           0
      2677 MEMB     2        CHL1     H14      HGA1     0.900000E-01   1.00800           0
      2678 MEMB     2        CHL1     C15      CRL2    -0.180000       12.0110           0
      2679 MEMB     2        CHL1     H15A     HGA2     0.900000E-01   1.00800           0
      2680 MEMB     2        CHL1     H15B     HGA2     0.900000E-01   1.00800           0
      2681 MEMB     2        CHL1     C16      CRL2    -0.180000       12.0110           0
      2682 MEMB     2        CHL1     H16A     HGA2     0.900000E-01   1.00800           0
      2683 MEMB     2        CHL1     H16B     HGA2     0.900000E-01   1.00800           0
      2684 MEMB     2        CHL1     C17      CRL1    -0.900000E-01   12.0110           0
      2685 MEMB     2        CHL1     H17      HGA1     0.900000E-01   1.00800           0
      2686 MEMB     2        CHL1     C13      CRL1     0.000000       12.0110           0
      2687 MEMB     2        CHL1     C18      CTL3    -0.270000       12.0110           0
      2688 MEMB     2        CHL1     H18A     HAL3     0.900000E-01   1.00800           0
      2689 MEMB     2        CHL1     H18B     HAL3     0.900000E-01   1.00800           0
      2690 MEMB     2        CHL1     H18C     HAL3     0.900000E-01   1.00800           0
      2691 MEMB     2        CHL1     C12      CRL2    -0.180000       12.0110           0
      2692 MEMB     2        CHL1     H12A     HGA2     0.900000E-01   1.00800           0
      2693 MEMB     2        CHL1     H12B     HGA2     0.900000E-01   1.00800           0
      2694 MEMB     2        CHL1     C11      CRL2    -0.180000       12.0110           0
      2695 MEMB     2        CHL1     H11A     HGA2     0.900000E-01   1.00800           0
      2696 MEMB     2        CHL1     H11B     HGA2     0.900000E-01   1.00800           0
      2697 MEMB     2        CHL1     C9       CRL1    -0.900000E-01   12.0110           0
      2698 MEMB     2        CHL1     H9       HGA1     0.900000E-01   1.00800           0
      2699 MEMB     2        CHL1     C10      CRL1     0.000000       12.0110           0
      2700 MEMB     2        CHL1     C19      CTL3    -0.270000       12.0110           0
      2701 MEMB     2        CHL1     H19A     HAL3     0.900000E-01   1.00800           0
      2702 MEMB     2        CHL1     H19B     HAL3     0.900000E-01   1.00800           0
      2703 MEMB     2        CHL1     H19C     HAL3     0.900000E-01   1.00800           0
      2704 MEMB     2        CHL1     C1       CRL2    -0.180000       12.0110           0
      2705 MEMB     2        CHL1     H1A      HGA2     0.900000E-01   1.00800           0
      2706 MEMB     2        CHL1     H1B      HGA2     0.900000E-01   1.00800           0
      2707 MEMB     2        CHL1     C2       CRL2    -0.180000       12.0110           0
      2708 MEMB     2        CHL1     H2A      HGA2     0.900000E-01   1.00800           0
      2709 MEMB     2        CHL1     H2B      HGA2     0.900000E-01   1.00800           0
      2710 MEMB     2        CHL1     C20      CTL1    -0.900000E-01   12.0110           0
      2711 MEMB     2        CHL1     H20      HAL1     0.900000E-01   1.00800           0
      2712 MEMB     2        CHL1     C21      CTL3    -0.270000       12.0110           0
      2713 MEMB     2        CHL1     H21A     HAL3     0.900000E-01   1.00800           0
      2714 MEMB     2        CHL1     H21B     HAL3     0.900000E-01   1.00800           0
      2715 MEMB     2        CHL1     H21C     HAL3     0.900000E-01   1.00800           0
      2716 MEMB     2        CHL1     C22      CTL2    -0.180000       12.0110           0
      2717 MEMB     2        CHL1     H22A     HAL2     0.900000E-01   1.00800           0
      2718 MEMB     2        CHL1     H22B     HAL2     0.900000E-01   1.00800           0
      2719 MEMB     2        CHL1     C23      CTL2    -0.180000       12.0110           0
      2720 MEMB     2        CHL1     H23A     HAL2     0.900000E-01   1.00800           0
      2721 MEMB     2        CHL1     H23B     HAL2     0.900000E-01   1.00800           0
      2722 MEMB     2        CHL1     C24      CTL2    -0.180000       12.0110           0
      2723 MEMB     2        CHL1     H24A     HAL2     0.900000E-01   1.00800           0
      2724 MEMB     2        CHL1     H24B     HAL2     0.900000E-01   1.00800           0
      2725 MEMB     2        CHL1     C25      CTL1    -0.900000E-01   12.0110           0
      2726 MEMB     2        CHL1     H25      HAL1     0.900000E-01   1.00800           0
      2727 MEMB     2        CHL1     C26      CTL3    -0.270000       12.0110           0
      2728 MEMB     2        CHL1     H26A     HAL3     0.900000E-01   1.00800           0
      2729 MEMB     2        CHL1     H26B     HAL3     0.900000E-01   1.00800           0
      2730 MEMB     2        CHL1     H26C     HAL3     0.900000E-01   1.00800           0
      2731 MEMB     2        CHL1     C27      CTL3    -0.270000       12.0110           0
      2732 MEMB     2        CHL1     H27A     HAL3     0.900000E-01   1.00800           0
      2733 MEMB     2        CHL1     H27B     HAL3     0.900000E-01   1.00800           0
      2734 MEMB     2        CHL1     H27C     HAL3     0.900000E-01   1.00800           0
      2735 MEMB     4        CHL1     C3       CRL1     0.140000       12.0110           0
      2736 MEMB     4        CHL1     H3       HGA1     0.900000E-01   1.00800           0
      2737 MEMB     4        CHL1     O3       OHL     -0.660000       15.9994           0
      2738 MEMB     4        CHL1     H3'      HOL      0.430000       1.00800           0
      2739 MEMB     4        CHL1     C4       CRL2    -0.180000       12.0110           0
      2740 MEMB     4        CHL1     H4A      HGA2     0.900000E-01   1.00800           0
      2741 MEMB     4        CHL1     H4B      HGA2     0.900000E-01   1.00800           0
      2742 MEMB     4        CHL1     C5       CEL1     0.000000       12.0110           0
      2743 MEMB     4        CHL1     C6       CEL1    -0.150000       12.0110           0
      2744 MEMB     4        CHL1     H6       HEL1     0.150000       1.00800           0
      2745 MEMB     4        CHL1     C7       CRL2    -0.180000       12.0110           0
      2746 MEMB     4        CHL1     H7A      HGA2     0.900000E-01   1.00800           0
      2747 MEMB     4        CHL1     H7B      HGA2     0.900000E-01   1.00800           0
      2748 MEMB     4        CHL1     C8       CRL1    -0.900000E-01   12.0110           0
      2749 MEMB     4        CHL1     H8       HGA1     0.900000E-01   1.00800           0
      2750 MEMB     4        CHL1     C14      CRL1    -0.900000E-01   12.0110           0
      2751 MEMB     4        CHL1     H14      HGA1     0.900000E-01   1.00800           0
      2752 MEMB     4        CHL1     C15      CRL2    -0.180000       12.0110           0
      2753 MEMB     4        CHL1     H15A     HGA2     0.900000E-01   1.00800           0
      2754 MEMB     4        CHL1     H15B     HGA2     0.900000E-01   1.00800           0
      2755 MEMB     4        CHL1     C16      CRL2    -0.180000       12.0110           0
      2756 MEMB     4        CHL1     H16A     HGA2     0.900000E-01   1.00800           0
      2757 MEMB     4        CHL1     H16B     HGA2     0.900000E-01   1.00800           0
      2758 MEMB     4        CHL1     C17      CRL1    -0.900000E-01   12.0110           0
      2759 MEMB     4        CHL1     H17      HGA1     0.900000E-01   1.00800           0
      2760 MEMB     4        CHL1     C13      CRL1     0.000000       12.0110           0
      2761 MEMB     4        CHL1     C18      CTL3    -0.270000       12.0110           0
      2762 MEMB     4        CHL1     H18A     HAL3     0.900000E-01   1.00800           0
      2763 MEMB     4        CHL1     H18B     HAL3     0.900000E-01   1.00800           0
      2764 MEMB     4        CHL1     H18C     HAL3     0.900000E-01   1.00800           0
      2765 MEMB     4        CHL1     C12      CRL2    -0.180000       12.0110           0
      2766 MEMB     4        CHL1     H12A     HGA2     0.900000E-01   1.00800           0
      2767 MEMB     4        CHL1     H12B     HGA2     0.900000E-01   1.00800           0
      2768 MEMB     4        CHL1     C11      CRL2    -0.180000       12.0110           0
      2769 MEMB     4        CHL1     H11A     HGA2     0.900000E-01   1.00800           0
      2770 MEMB     4        CHL1     H11B     HGA2     0.900000E-01   1.00800           0
      2771 MEMB     4        CHL1     C9       CRL1    -0.900000E-01   12.0110           0
      2772 MEMB     4        CHL1     H9       HGA1     0.900000E-01   1.00800           0
      2773 MEMB     4        CHL1     C10      CRL1     0.000000       12.0110           0
      2774 MEMB     4        CHL1     C19      CTL3    -0.270000       12.0110           0
      2775 MEMB     4        CHL1     H19A     HAL3     0.900000E-01   1.00800           0
      2776 MEMB     4        CHL1     H19B     HAL3     0.900000E-01   1.00800           0
      2777 MEMB     4        CHL1     H19C     HAL3     0.900000E-01   1.00800           0
      2778 MEMB     4        CHL1     C1       CRL2    -0.180000       12.0110           0
      2779 MEMB     4        CHL1     H1A      HGA2     0.900000E-01   1.00800           0
      2780 MEMB     4        CHL1     H1B      HGA2     0.900000E-01   1.00800           0
      2781 MEMB     4        CHL1     C2       CRL2    -0.180000       12.0110           0
      2782 MEMB     4        CHL1     H2A      HGA2     0.900000E-01   1.00800           0
      2783 MEMB     4        CHL1     H2B      HGA2     0.900000E-01   1.00800           0
      2784 MEMB     4        CHL1     C20      CTL1    -0.900000E-01   12.0110           0
      2785 MEMB     4        CHL1     H20      HAL1     0.900000E-01   1.00800           0
      2786 MEMB     4        CHL1     C21      CTL3    -0.270000       12.0110           0
      2787 MEMB     4        CHL1     H21A     HAL3     0.900000E-01   1.00800           0
      2788 MEMB     4        CHL1     H21B     HAL3     0.900000E-01   1.00800           0
      2789 MEMB     4        CHL1     H21C     HAL3     0.900000E-01   1.00800           0
      2790 MEMB     4        CHL1     C22      CTL2    -0.180000       12.0110           0
      2791 MEMB     4        CHL1     H22A     HAL2     0.900000E-01   1.00800           0
      2792 MEMB     4        CHL1     H22B     HAL2     0.900000E-01   1.00800           0
      2793 MEMB     4        CHL1     C23      CTL2    -0.180000       12.0110           0
      2794 MEMB     4        CHL1     H23A     HAL2     0.900000E-01   1.00800           0
      2795 MEMB     4        CHL1     H23B     HAL2     0.900000E-01   1.00800           0
      2796 MEMB     4        CHL1     C24      CTL2    -0.180000       12.0110           0
      2797 MEMB     4        CHL1     H24A     HAL2     0.900000E-01   1.00800           0
      2798 MEMB     4        CHL1     H24B     HAL2     0.900000E-01   1.00800           0
      2799 MEMB     4        CHL1     C25      CTL1    -0.900000E-01   12.0110           0
      2800 MEMB     4        CHL1     H25      HAL1     0.900000E-01   1.00800           0
      2801 MEMB     4        CHL1     C26      CTL3    -0.270000       12.0110           0
      2802 MEMB     4        CHL1     H26A     HAL3     0.900000E-01   1.00800           0
      2803 MEMB     4        CHL1     H26B     HAL3     0.900000E-01   1.00800           0
      2804 MEMB     4        CHL1     H26C     HAL3     0.900000E-01   1.00800           0
      2805 MEMB     4        CHL1     C27      CTL3    -0.270000       12.0110           0
      2806 MEMB     4        CHL1     H27A     HAL3     0.900000E-01   1.00800           0
      2807 MEMB     4        CHL1     H27B     HAL3     0.900000E-01   1.00800           0
      2808 MEMB     4        CHL1     H27C     HAL3     0.900000E-01   1.00800           0
      2809 MEMB     7        CHL1     C3       CRL1     0.140000       12.0110           0
      2810 MEMB     7        CHL1     H3       HGA1     0.900000E-01   1.00800           0
      2811 MEMB     7        CHL1     O3       OHL     -0.660000       15.9994           0
      2812 MEMB     7        CHL1     H3'      HOL      0.430000       1.00800           0
      2813 MEMB     7        CHL1     C4       CRL2    -0.180000       12.0110           0
      2814 MEMB     7        CHL1     H4A      HGA2     0.900000E-01   1.00800           0
      2815 MEMB     7        CHL1     H4B      HGA2     0.900000E-01   1.00800           0
      2816 MEMB     7        CHL1     C5       CEL1     0.000000       12.0110           0
      2817 MEMB     7        CHL1     C6       CEL1    -0.150000       12.0110           0
      2818 MEMB     7        CHL1     H6       HEL1     0.150000       1.00800           0
      2819 MEMB     7        CHL1     C7       CRL2    -0.180000       12.0110           0
      2820 MEMB     7        CHL1     H7A      HGA2     0.900000E-01   1.00800           0
      2821 MEMB     7        CHL1     H7B      HGA2     0.900000E-01   1.00800           0
      2822 MEMB     7        CHL1     C8       CRL1    -0.900000E-01   12.0110           0
      2823 MEMB     7        CHL1     H8       HGA1     0.900000E-01   1.00800           0
      2824 MEMB     7        CHL1     C14      CRL1    -0.900000E-01   12.0110           0
      2825 MEMB     7        CHL1     H14      HGA1     0.900000E-01   1.00800           0
      2826 MEMB     7        CHL1     C15      CRL2    -0.180000       12.0110           0
      2827 MEMB     7        CHL1     H15A     HGA2     0.900000E-01   1.00800           0
      2828 MEMB     7        CHL1     H15B     HGA2     0.900000E-01   1.00800           0
      2829 MEMB     7        CHL1     C16      CRL2    -0.180000       12.0110           0
      2830 MEMB     7        CHL1     H16A     HGA2     0.900000E-01   1.00800           0
      2831 MEMB     7        CHL1     H16B     HGA2     0.900000E-01   1.00800           0
      2832 MEMB     7        CHL1     C17      CRL1    -0.900000E-01   12.0110           0
      2833 MEMB     7        CHL1     H17      HGA1     0.900000E-01   1.00800           0
      2834 MEMB     7        CHL1     C13      CRL1     0.000000       12.0110           0
      2835 MEMB     7        CHL1     C18      CTL3    -0.270000       12.0110           0
      2836 MEMB     7        CHL1     H18A     HAL3     0.900000E-01   1.00800           0
      2837 MEMB     7        CHL1     H18B     HAL3     0.900000E-01   1.00800           0
      2838 MEMB     7        CHL1     H18C     HAL3     0.900000E-01   1.00800           0
      2839 MEMB     7        CHL1     C12      CRL2    -0.180000       12.0110           0
      2840 MEMB     7        CHL1     H12A     HGA2     0.900000E-01   1.00800           0
      2841 MEMB     7        CHL1     H12B     HGA2     0.900000E-01   1.00800           0
      2842 MEMB     7        CHL1     C11      CRL2    -0.180000       12.0110           0
      2843 MEMB     7        CHL1     H11A     HGA2     0.900000E-01   1.00800           0
      2844 MEMB     7        CHL1     H11B     HGA2     0.900000E-01   1.00800           0
      2845 MEMB     7        CHL1     C9       CRL1    -0.900000E-01   12.0110           0
      2846 MEMB     7        CHL1     H9       HGA1     0.900000E-01   1.00800           0
      2847 MEMB     7        CHL1     C10      CRL1     0.000000       12.0110           0
      2848 MEMB     7        CHL1     C19      CTL3    -0.270000       12.0110           0
      2849 MEMB     7        CHL1     H19A     HAL3     0.900000E-01   1.00800           0
      2850 MEMB     7        CHL1     H19B     HAL3     0.900000E-01   1.00800           0
      2851 MEMB     7        CHL1     H19C     HAL3     0.900000E-01   1.00800           0
      2852 MEMB     7        CHL1     C1       CRL2    -0.180000       12.0110           0
      2853 MEMB     7        CHL1     H1A      HGA2     0.900000E-01   1.00800           0
      2854 MEMB     7        CHL1     H1B      HGA2     0.900000E-01   1.00800           0
      2855 MEMB     7        CHL1     C2       CRL2    -0.180000       12.0110           0
      2856 MEMB     7        CHL1     H2A      HGA2     0.900000E-01   1.00800           0
      2857 MEMB     7        CHL1     H2B      HGA2     0.900000E-01   1.00800           0
      2858 MEMB     7        CHL1     C20      CTL1    -0.900000E-01   12.0110           0
      2859 MEMB     7        CHL1     H20      HAL1     0.900000E-01   1.00800           0
      2860 MEMB     7        CHL1     C21      CTL3    -0.270000       12.0110           0
      2861 MEMB     7        CHL1     H21A     HAL3     0.900000E-01   1.00800           0
      2862 MEMB     7        CHL1     H21B     HAL3     0.900000E-01   1.00800           0
      2863 MEMB     7        CHL1     H21C     HAL3     0.900000E-01   1.00800           0
      2864 MEMB     7        CHL1     C22      CTL2    -0.180000       12.0110           0
      2865 MEMB     7        CHL1     H22A     HAL2     0.900000E-01   1.00800           0
      2866 MEMB     7        CHL1     H22B     HAL2     0.900000E-01   1.00800           0
      2867 MEMB     7        CHL1     C23      CTL2    -0.180000       12.0110           0
      2868 MEMB     7        CHL1     H23A     HAL2     0.900000E-01   1.00800           0
      2869 MEMB     7        CHL1     H23B     HAL2     0.900000E-01   1.00800           0
      2870 MEMB     7        CHL1     C24      CTL2    -0.180000       12.0110           0
      2871 MEMB     7        CHL1     H24A     HAL2     0.900000E-01   1.00800           0
      2872 MEMB     7        CHL1     H24B     HAL2     0.900000E-01   1.00800           0
      2873 MEMB     7        CHL1     C25      CTL1    -0.900000E-01   12.0110           0
      2874 MEMB     7        CHL1     H25      HAL1     0.900000E-01   1.00800           0
      2875 MEMB     7        CHL1     C26      CTL3    -0.270000       12.0110           0
      2876 MEMB     7        CHL1     H26A     HAL3     0.900000E-01   1.00800           0
      2877 MEMB     7        CHL1     H26B     HAL3     0.900000E-01   1.00800           0
      2878 MEMB     7        CHL1     H26C     HAL3     0.900000E-01   1.00800           0
      2879 MEMB     7        CHL1     C27      CTL3    -0.270000       12.0110           0
      2880 MEMB     7        CHL1     H27A     HAL3     0.900000E-01   1.00800           0
      2881 MEMB     7        CHL1     H27B     HAL3     0.900000E-01   1.00800           0
      2882 MEMB     7        CHL1     H27C     HAL3     0.900000E-01   1.00800           0
      2883 MEMB     8        CHL1     C3       CRL1     0.140000       12.0110           0
      2884 MEMB     8        CHL1     H3       HGA1     0.900000E-01   1.00800           0
      2885 MEMB     8        CHL1     O3       OHL     -0.660000       15.9994           0
      2886 MEMB     8        CHL1     H3'      HOL      0.430000       1.00800           0
      2887 MEMB     8        CHL1     C4       CRL2    -0.180000       12.0110           0
      2888 MEMB     8        CHL1     H4A      HGA2     0.900000E-01   1.00800           0
      2889 MEMB     8        CHL1     H4B      HGA2     0.900000E-01   1.00800           0
      2890 MEMB     8        CHL1     C5       CEL1     0.000000       12.0110           0
      2891 MEMB     8        CHL1     C6       CEL1    -0.150000       12.0110           0
      2892 MEMB     8        CHL1     H6       HEL1     0.150000       1.00800           0
      2893 MEMB     8        CHL1     C7       CRL2    -0.180000       12.0110           0
      2894 MEMB     8        CHL1     H7A      HGA2     0.900000E-01   1.00800           0
      2895 MEMB     8        CHL1     H7B      HGA2     0.900000E-01   1.00800           0
      2896 MEMB     8        CHL1     C8       CRL1    -0.900000E-01   12.0110           0
      2897 MEMB     8        CHL1     H8       HGA1     0.900000E-01   1.00800           0
      2898 MEMB     8        CHL1     C14      CRL1    -0.900000E-01   12.0110           0
      2899 MEMB     8        CHL1     H14      HGA1     0.900000E-01   1.00800           0
      2900 MEMB     8        CHL1     C15      CRL2    -0.180000       12.0110           0
      2901 MEMB     8        CHL1     H15A     HGA2     0.900000E-01   1.00800           0
      2902 MEMB     8        CHL1     H15B     HGA2     0.900000E-01   1.00800           0
      2903 MEMB     8        CHL1     C16      CRL2    -0.180000       12.0110           0
      2904 MEMB     8        CHL1     H16A     HGA2     0.900000E-01   1.00800           0
      2905 MEMB     8        CHL1     H16B     HGA2     0.900000E-01   1.00800           0
      2906 MEMB     8        CHL1     C17      CRL1    -0.900000E-01   12.0110           0
      2907 MEMB     8        CHL1     H17      HGA1     0.900000E-01   1.00800           0
      2908 MEMB     8        CHL1     C13      CRL1     0.000000       12.0110           0
      2909 MEMB     8        CHL1     C18      CTL3    -0.270000       12.0110           0
      2910 MEMB     8        CHL1     H18A     HAL3     0.900000E-01   1.00800           0
      2911 MEMB     8        CHL1     H18B     HAL3     0.900000E-01   1.00800           0
      2912 MEMB     8        CHL1     H18C     HAL3     0.900000E-01   1.00800           0
      2913 MEMB     8        CHL1     C12      CRL2    -0.180000       12.0110           0
      2914 MEMB     8        CHL1     H12A     HGA2     0.900000E-01   1.00800           0
      2915 MEMB     8        CHL1     H12B     HGA2     0.900000E-01   1.00800           0
      2916 MEMB     8        CHL1     C11      CRL2    -0.180000       12.0110           0
      2917 MEMB     8        CHL1     H11A     HGA2     0.900000E-01   1.00800           0
      2918 MEMB     8        CHL1     H11B     HGA2     0.900000E-01   1.00800           0
      2919 MEMB     8        CHL1     C9       CRL1    -0.900000E-01   12.0110           0
      2920 MEMB     8        CHL1     H9       HGA1     0.900000E-01   1.00800           0
      2921 MEMB     8        CHL1     C10      CRL1     0.000000       12.0110           0
      2922 MEMB     8        CHL1     C19      CTL3    -0.270000       12.0110           0
      2923 MEMB     8        CHL1     H19A     HAL3     0.900000E-01   1.00800           0
      2924 MEMB     8        CHL1     H19B     HAL3     0.900000E-01   1.00800           0
      2925 MEMB     8        CHL1     H19C     HAL3     0.900000E-01   1.00800           0
      2926 MEMB     8        CHL1     C1       CRL2    -0.180000       12.0110           0
      2927 MEMB     8        CHL1     H1A      HGA2     0.900000E-01   1.00800           0
      2928 MEMB     8        CHL1     H1B      HGA2     0.900000E-01   1.00800           0
      2929 MEMB     8        CHL1     C2       CRL2    -0.180000       12.0110           0
      2930 MEMB     8        CHL1     H2A      HGA2     0.900000E-01   1.00800           0
      2931 MEMB     8        CHL1     H2B      HGA2     0.900000E-01   1.00800           0
      2932 MEMB     8        CHL1     C20      CTL1    -0.900000E-01   12.0110           0
      2933 MEMB     8        CHL1     H20      HAL1     0.900000E-01   1.00800           0
      2934 MEMB     8        CHL1     C21      CTL3    -0.270000       12.0110           0
      2935 MEMB     8        CHL1     H21A     HAL3     0.900000E-01   1.00800           0
      2936 MEMB     8        CHL1     H21B     HAL3     0.900000E-01   1.00800           0
      2937 MEMB     8        CHL1     H21C     HAL3     0.900000E-01   1.00800           0
      2938 MEMB     8        CHL1     C22      CTL2    -0.180000       12.0110           0
      2939 MEMB     8        CHL1     H22A     HAL2     0.900000E-01   1.00800           0
      2940 MEMB     8        CHL1     H22B     HAL2     0.900000E-01   1.00800           0
      2941 MEMB     8        CHL1     C23      CTL2    -0.180000       12.0110           0
      2942 MEMB     8        CHL1     H23A     HAL2     0.900000E-01   1.00800           0
      2943 MEMB     8        CHL1     H23B     HAL2     0.900000E-01   1.00800           0
      2944 MEMB     8        CHL1     C24      CTL2    -0.180000       12.0110           0
      2945 MEMB     8        CHL1     H24A     HAL2     0.900000E-01   1.00800           0
      2946 MEMB     8        CHL1     H24B     HAL2     0.900000E-01   1.00800           0
      2947 MEMB     8        CHL1     C25      CTL1    -0.900000E-01   12.0110           0
      2948 MEMB     8        CHL1     H25      HAL1     0.900000E-01   1.00800           0
      2949 MEMB     8        CHL1     C26      CTL3    -0.270000       12.0110           0
      2950 MEMB     8        CHL1     H26A     HAL3     0.900000E-01   1.00800           0
      2951 MEMB     8        CHL1     H26B     HAL3     0.900000E-01   1.00800           0
      2952 MEMB     8        CHL1     H26C     HAL3     0.900000E-01   1.00800           0
      2953 MEMB     8        CHL1     C27      CTL3    -0.270000       12.0110           0
      2954 MEMB     8        CHL1     H27A     HAL3     0.900000E-01   1.00800           0
      2955 MEMB     8        CHL1     H27B     HAL3     0.900000E-01   1.00800           0
      2956 MEMB     8        CHL1     H27C     HAL3     0.900000E-01   1.00800           0
      2957 MEMB     12       CHL1     C3       CRL1     0.140000       12.0110           0
      2958 MEMB     12       CHL1     H3       HGA1     0.900000E-01   1.00800           0
      2959 MEMB     12       CHL1     O3       OHL     -0.660000       15.9994           0
      2960 MEMB     12       CHL1     H3'      HOL      0.430000       1.00800           0
      2961 MEMB     12       CHL1     C4       CRL2    -0.180000       12.0110           0
      2962 MEMB     12       CHL1     H4A      HGA2     0.900000E-01   1.00800           0
      2963 MEMB     12       CHL1     H4B      HGA2     0.900000E-01   1.00800           0
      2964 MEMB     12       CHL1     C5       CEL1     0.000000       12.0110           0
      2965 MEMB     12       CHL1     C6       CEL1    -0.150000       12.0110           0
      2966 MEMB     12       CHL1     H6       HEL1     0.150000       1.00800           0
      2967 MEMB     12       CHL1     C7       CRL2    -0.180000       12.0110           0
      2968 MEMB     12       CHL1     H7A      HGA2     0.900000E-01   1.00800           0
      2969 MEMB     12       CHL1     H7B      HGA2     0.900000E-01   1.00800           0
      2970 MEMB     12       CHL1     C8       CRL1    -0.900000E-01   12.0110           0
      2971 MEMB     12       CHL1     H8       HGA1     0.900000E-01   1.00800           0
      2972 MEMB     12       CHL1     C14      CRL1    -0.900000E-01   12.0110           0
      2973 MEMB     12       CHL1     H14      HGA1     0.900000E-01   1.00800           0
      2974 MEMB     12       CHL1     C15      CRL2    -0.180000       12.0110           0
      2975 MEMB     12       CHL1     H15A     HGA2     0.900000E-01   1.00800           0
      2976 MEMB     12       CHL1     H15B     HGA2     0.900000E-01   1.00800           0
      2977 MEMB     12       CHL1     C16      CRL2    -0.180000       12.0110           0
      2978 MEMB     12       CHL1     H16A     HGA2     0.900000E-01   1.00800           0
      2979 MEMB     12       CHL1     H16B     HGA2     0.900000E-01   1.00800           0
      2980 MEMB     12       CHL1     C17      CRL1    -0.900000E-01   12.0110           0
      2981 MEMB     12       CHL1     H17      HGA1     0.900000E-01   1.00800           0
      2982 MEMB     12       CHL1     C13      CRL1     0.000000       12.0110           0
      2983 MEMB     12       CHL1     C18      CTL3    -0.270000       12.0110           0
      2984 MEMB     12       CHL1     H18A     HAL3     0.900000E-01   1.00800           0
      2985 MEMB     12       CHL1     H18B     HAL3     0.900000E-01   1.00800           0
      2986 MEMB     12       CHL1     H18C     HAL3     0.900000E-01   1.00800           0
      2987 MEMB     12       CHL1     C12      CRL2    -0.180000       12.0110           0
      2988 MEMB     12       CHL1     H12A     HGA2     0.900000E-01   1.00800           0
      2989 MEMB     12       CHL1     H12B     HGA2     0.900000E-01   1.00800           0
      2990 MEMB     12       CHL1     C11      CRL2    -0.180000       12.0110           0
      2991 MEMB     12       CHL1     H11A     HGA2     0.900000E-01   1.00800           0
      2992 MEMB     12       CHL1     H11B     HGA2     0.900000E-01   1.00800           0
      2993 MEMB     12       CHL1     C9       CRL1    -0.900000E-01   12.0110           0
      2994 MEMB     12       CHL1     H9       HGA1     0.900000E-01   1.00800           0
      2995 MEMB     12       CHL1     C10      CRL1     0.000000       12.0110           0
      2996 MEMB     12       CHL1     C19      CTL3    -0.270000       12.0110           0
      2997 MEMB     12       CHL1     H19A     HAL3     0.900000E-01   1.00800           0
      2998 MEMB     12       CHL1     H19B     HAL3     0.900000E-01   1.00800           0
      2999 MEMB     12       CHL1     H19C     HAL3     0.900000E-01   1.00800           0
      3000 MEMB     12       CHL1     C1       CRL2    -0.180000       12.0110           0
      3001 MEMB     12       CHL1     H1A      HGA2     0.900000E-01   1.00800           0
      3002 MEMB     12       CHL1     H1B      HGA2     0.900000E-01   1.00800           0
      3003 MEMB     12       CHL1     C2       CRL2    -0.180000       12.0110           0
      3004 MEMB     12       CHL1     H2A      HGA2     0.900000E-01   1.00800           0
      3005 MEMB     12       CHL1     H2B      HGA2     0.900000E-01   1.00800           0
      3006 MEMB     12       CHL1     C20      CTL1    -0.900000E-01   12.0110           0
      3007 MEMB     12       CHL1     H20      HAL1     0.900000E-01   1.00800           0
      3008 MEMB     12       CHL1     C21      CTL3    -0.270000       12.0110           0
      3009 MEMB     12       CHL1     H21A     HAL3     0.900000E-01   1.00800           0
      3010 MEMB     12       CHL1     H21B     HAL3     0.900000E-01   1.00800           0
      3011 MEMB     12       CHL1     H21C     HAL3     0.900000E-01   1.00800           0
      3012 MEMB     12       CHL1     C22      CTL2    -0.180000       12.0110           0
      3013 MEMB     12       CHL1     H22A     HAL2     0.900000E-01   1.00800           0
      3014 MEMB     12       CHL1     H22B     HAL2     0.900000E-01   1.00800           0
      3015 MEMB     12       CHL1     C23      CTL2    -0.180000       12.0110           0
      3016 MEMB     12       CHL1     H23A     HAL2     0.900000E-01   1.00800           0
      3017 MEMB     12       CHL1     H23B     HAL2     0.900000E-01   1.00800           0
      3018 MEMB     12       CHL1     C24      CTL2    -0.180000       12.0110           0
      3019 MEMB     12       CHL1     H24A     HAL2     0.900000E-01   1.00800           0
      3020 MEMB     12       CHL1     H24B     HAL2     0.900000E-01   1.00800           0
      3021 MEMB     12       CHL1     C25      CTL1    -0.900000E-01   12.0110           0
      3022 MEMB     12       CHL1     H25      HAL1     0.900000E-01   1.00800           0
      3023 MEMB     12       CHL1     C26      CTL3    -0.270000       12.0110           0
      3024 MEMB     12       CHL1     H26A     HAL3     0.900000E-01   1.00800           0
      3025 MEMB     12       CHL1     H26B     HAL3     0.900000E-01   1.00800           0
      3026 MEMB     12       CHL1     H26C     HAL3     0.900000E-01   1.00800           0
      3027 MEMB     12       CHL1     C27      CTL3    -0.270000       12.0110           0
      3028 MEMB     12       CHL1     H27A     HAL3     0.900000E-01   1.00800           0
      3029 MEMB     12       CHL1     H27B     HAL3     0.900000E-01   1.00800           0
      3030 MEMB     12       CHL1     H27C     HAL3     0.900000E-01   1.00800           0
      3031 MEMB     13       CHL1     C3       CRL1     0.140000       12.0110           0
      3032 MEMB     13       CHL1     H3       HGA1     0.900000E-01   1.00800           0
      3033 MEMB     13       CHL1     O3       OHL     -0.660000       15.9994           0
      3034 MEMB     13       CHL1     H3'      HOL      0.430000       1.00800           0
      3035 MEMB     13       CHL1     C4       CRL2    -0.180000       12.0110           0
      3036 MEMB     13       CHL1     H4A      HGA2     0.900000E-01   1.00800           0
      3037 MEMB     13       CHL1     H4B      HGA2     0.900000E-01   1.00800           0
      3038 MEMB     13       CHL1     C5       CEL1     0.000000       12.0110           0
      3039 MEMB     13       CHL1     C6       CEL1    -0.150000       12.0110           0
      3040 MEMB     13       CHL1     H6       HEL1     0.150000       1.00800           0
      3041 MEMB     13       CHL1     C7       CRL2    -0.180000       12.0110           0
      3042 MEMB     13       CHL1     H7A      HGA2     0.900000E-01   1.00800           0
      3043 MEMB     13       CHL1     H7B      HGA2     0.900000E-01   1.00800           0
      3044 MEMB     13       CHL1     C8       CRL1    -0.900000E-01   12.0110           0
      3045 MEMB     13       CHL1     H8       HGA1     0.900000E-01   1.00800           0
      3046 MEMB     13       CHL1     C14      CRL1    -0.900000E-01   12.0110           0
      3047 MEMB     13       CHL1     H14      HGA1     0.900000E-01   1.00800           0
      3048 MEMB     13       CHL1     C15      CRL2    -0.180000       12.0110           0
      3049 MEMB     13       CHL1     H15A     HGA2     0.900000E-01   1.00800           0
      3050 MEMB     13       CHL1     H15B     HGA2     0.900000E-01   1.00800           0
      3051 MEMB     13       CHL1     C16      CRL2    -0.180000       12.0110           0
      3052 MEMB     13       CHL1     H16A     HGA2     0.900000E-01   1.00800           0
      3053 MEMB     13       CHL1     H16B     HGA2     0.900000E-01   1.00800           0
      3054 MEMB     13       CHL1     C17      CRL1    -0.900000E-01   12.0110           0
      3055 MEMB     13       CHL1     H17      HGA1     0.900000E-01   1.00800           0
      3056 MEMB     13       CHL1     C13      CRL1     0.000000       12.0110           0
      3057 MEMB     13       CHL1     C18      CTL3    -0.270000       12.0110           0
      3058 MEMB     13       CHL1     H18A     HAL3     0.900000E-01   1.00800           0
      3059 MEMB     13       CHL1     H18B     HAL3     0.900000E-01   1.00800           0
      3060 MEMB     13       CHL1     H18C     HAL3     0.900000E-01   1.00800           0
      3061 MEMB     13       CHL1     C12      CRL2    -0.180000       12.0110           0
      3062 MEMB     13       CHL1     H12A     HGA2     0.900000E-01   1.00800           0
      3063 MEMB     13       CHL1     H12B     HGA2     0.900000E-01   1.00800           0
      3064 MEMB     13       CHL1     C11      CRL2    -0.180000       12.0110           0
      3065 MEMB     13       CHL1     H11A     HGA2     0.900000E-01   1.00800           0
      3066 MEMB     13       CHL1     H11B     HGA2     0.900000E-01   1.00800           0
      3067 MEMB     13       CHL1     C9       CRL1    -0.900000E-01   12.0110           0
      3068 MEMB     13       CHL1     H9       HGA1     0.900000E-01   1.00800           0
      3069 MEMB     13       CHL1     C10      CRL1     0.000000       12.0110           0
      3070 MEMB     13       CHL1     C19      CTL3    -0.270000       12.0110           0
      3071 MEMB     13       CHL1     H19A     HAL3     0.900000E-01   1.00800           0
      3072 MEMB     13       CHL1     H19B     HAL3     0.900000E-01   1.00800           0
      3073 MEMB     13       CHL1     H19C     HAL3     0.900000E-01   1.00800           0
      3074 MEMB     13       CHL1     C1       CRL2    -0.180000       12.0110           0
      3075 MEMB     13       CHL1     H1A      HGA2     0.900000E-01   1.00800           0
      3076 MEMB     13       CHL1     H1B      HGA2     0.900000E-01   1.00800           0
      3077 MEMB     13       CHL1     C2       CRL2    -0.180000       12.0110           0
      3078 MEMB     13       CHL1     H2A      HGA2     0.900000E-01   1.00800           0
      3079 MEMB     13       CHL1     H2B      HGA2     0.900000E-01   1.00800           0
      3080 MEMB     13       CHL1     C20      CTL1    -0.900000E-01   12.0110           0
      3081 MEMB     13       CHL1     H20      HAL1     0.900000E-01   1.00800           0
      3082 MEMB     13       CHL1     C21      CTL3    -0.270000       12.0110           0
      3083 MEMB     13       CHL1     H21A     HAL3     0.900000E-01   1.00800           0
      3084 MEMB     13       CHL1     H21B     HAL3     0.900000E-01   1.00800           0
      3085 MEMB     13       CHL1     H21C     HAL3     0.900000E-01   1.00800           0
      3086 MEMB     13       CHL1     C22      CTL2    -0.180000       12.0110           0
      3087 MEMB     13       CHL1     H22A     HAL2     0.900000E-01   1.00800           0
      3088 MEMB     13       CHL1     H22B     HAL2     0.900000E-01   1.00800           0
      3089 MEMB     13       CHL1     C23      CTL2    -0.180000       12.0110           0
      3090 MEMB     13       CHL1     H23A     HAL2     0.900000E-01   1.00800           0
      3091 MEMB     13       CHL1     H23B     HAL2     0.900000E-01   1.00800           0
      3092 MEMB     13       CHL1     C24      CTL2    -0.180000       12.0110           0
      3093 MEMB     13       CHL1     H24A     HAL2     0.900000E-01   1.00800           0
      3094 MEMB     13       CHL1     H24B     HAL2     0.900000E-01   1.00800           0
      3095 MEMB     13       CHL1     C25      CTL1    -0.900000E-01   12.0110           0
      3096 MEMB     13       CHL1     H25      HAL1     0.900000E-01   1.00800           0
      3097 MEMB     13       CHL1     C26      CTL3    -0.270000       12.0110           0
      3098 MEMB     13       CHL1     H26A     HAL3     0.900000E-01   1.00800           0
      3099 MEMB     13       CHL1     H26B     HAL3     0.900000E-01   1.00800           0
      3100 MEMB     13       CHL1     H26C     HAL3     0.900000E-01   1.00800           0
      3101 MEMB     13       CHL1     C27      CTL3    -0.270000       12.0110           0
      3102 MEMB     13       CHL1     H27A     HAL3     0.900000E-01   1.00800           0
      3103 MEMB     13       CHL1     H27B     HAL3     0.900000E-01   1.00800           0
      3104 MEMB     13       CHL1     H27C     HAL3     0.900000E-01   1.00800           0
      3105 MEMB     14       CHL1     C3       CRL1     0.140000       12.0110           0
      3106 MEMB     14       CHL1     H3       HGA1     0.900000E-01   1.00800           0
      3107 MEMB     14       CHL1     O3       OHL     -0.660000       15.9994           0
      3108 MEMB     14       CHL1     H3'      HOL      0.430000       1.00800           0
      3109 MEMB     14       CHL1     C4       CRL2    -0.180000       12.0110           0
      3110 MEMB     14       CHL1     H4A      HGA2     0.900000E-01   1.00800           0
      3111 MEMB     14       CHL1     H4B      HGA2     0.900000E-01   1.00800           0
      3112 MEMB     14       CHL1     C5       CEL1     0.000000       12.0110           0
      3113 MEMB     14       CHL1     C6       CEL1    -0.150000       12.0110           0
      3114 MEMB     14       CHL1     H6       HEL1     0.150000       1.00800           0
      3115 MEMB     14       CHL1     C7       CRL2    -0.180000       12.0110           0
      3116 MEMB     14       CHL1     H7A      HGA2     0.900000E-01   1.00800           0
      3117 MEMB     14       CHL1     H7B      HGA2     0.900000E-01   1.00800           0
      3118 MEMB     14       CHL1     C8       CRL1    -0.900000E-01   12.0110           0
      3119 MEMB     14       CHL1     H8       HGA1     0.900000E-01   1.00800           0
      3120 MEMB     14       CHL1     C14      CRL1    -0.900000E-01   12.0110           0
      3121 MEMB     14       CHL1     H14      HGA1     0.900000E-01   1.00800           0
      3122 MEMB     14       CHL1     C15      CRL2    -0.180000       12.0110           0
      3123 MEMB     14       CHL1     H15A     HGA2     0.900000E-01   1.00800           0
      3124 MEMB     14       CHL1     H15B     HGA2     0.900000E-01   1.00800           0
      3125 MEMB     14       CHL1     C16      CRL2    -0.180000       12.0110           0
      3126 MEMB     14       CHL1     H16A     HGA2     0.900000E-01   1.00800           0
      3127 MEMB     14       CHL1     H16B     HGA2     0.900000E-01   1.00800           0
      3128 MEMB     14       CHL1     C17      CRL1    -0.900000E-01   12.0110           0
      3129 MEMB     14       CHL1     H17      HGA1     0.900000E-01   1.00800           0
      3130 MEMB     14       CHL1     C13      CRL1     0.000000       12.0110           0
      3131 MEMB     14       CHL1     C18      CTL3    -0.270000       12.0110           0
      3132 MEMB     14       CHL1     H18A     HAL3     0.900000E-01   1.00800           0
      3133 MEMB     14       CHL1     H18B     HAL3     0.900000E-01   1.00800           0
      3134 MEMB     14       CHL1     H18C     HAL3     0.900000E-01   1.00800           0
      3135 MEMB     14       CHL1     C12      CRL2    -0.180000       12.0110           0
      3136 MEMB     14       CHL1     H12A     HGA2     0.900000E-01   1.00800           0
      3137 MEMB     14       CHL1     H12B     HGA2     0.900000E-01   1.00800           0
      3138 MEMB     14       CHL1     C11      CRL2    -0.180000       12.0110           0
      3139 MEMB     14       CHL1     H11A     HGA2     0.900000E-01   1.00800           0
      3140 MEMB     14       CHL1     H11B     HGA2     0.900000E-01   1.00800           0
      3141 MEMB     14       CHL1     C9       CRL1    -0.900000E-01   12.0110           0
      3142 MEMB     14       CHL1     H9       HGA1     0.900000E-01   1.00800           0
      3143 MEMB     14       CHL1     C10      CRL1     0.000000       12.0110           0
      3144 MEMB     14       CHL1     C19      CTL3    -0.270000       12.0110           0
      3145 MEMB     14       CHL1     H19A     HAL3     0.900000E-01   1.00800           0
      3146 MEMB     14       CHL1     H19B     HAL3     0.900000E-01   1.00800           0
      3147 MEMB     14       CHL1     H19C     HAL3     0.900000E-01   1.00800           0
      3148 MEMB     14       CHL1     C1       CRL2    -0.180000       12.0110           0
      3149 MEMB     14       CHL1     H1A      HGA2     0.900000E-01   1.00800           0
      3150 MEMB     14       CHL1     H1B      HGA2     0.900000E-01   1.00800           0
      3151 MEMB     14       CHL1     C2       CRL2    -0.180000       12.0110           0
      3152 MEMB     14       CHL1     H2A      HGA2     0.900000E-01   1.00800           0
      3153 MEMB     14       CHL1     H2B      HGA2     0.900000E-01   1.00800           0
      3154 MEMB     14       CHL1     C20      CTL1    -0.900000E-01   12.0110           0
      3155 MEMB     14       CHL1     H20      HAL1     0.900000E-01   1.00800           0
      3156 MEMB     14       CHL1     C21      CTL3    -0.270000       12.0110           0
      3157 MEMB     14       CHL1     H21A     HAL3     0.900000E-01   1.00800           0
      3158 MEMB     14       CHL1     H21B     HAL3     0.900000E-01   1.00800           0
      3159 MEMB     14       CHL1     H21C     HAL3     0.900000E-01   1.00800           0
      3160 MEMB     14       CHL1     C22      CTL2    -0.180000       12.0110           0
      3161 MEMB     14       CHL1     H22A     HAL2     0.900000E-01   1.00800           0
      3162 MEMB     14       CHL1     H22B     HAL2     0.900000E-01   1.00800           0
      3163 MEMB     14       CHL1     C23      CTL2    -0.180000       12.0110           0
      3164 MEMB     14       CHL1     H23A     HAL2     0.900000E-01   1.00800           0
      3165 MEMB     14       CHL1     H23B     HAL2     0.900000E-01   1.00800           0
      3166 MEMB     14       CHL1     C24      CTL2    -0.180000       12.0110           0
      3167 MEMB     14       CHL1     H24A     HAL2     0.900000E-01   1.00800           0
      3168 MEMB     14       CHL1     H24B     HAL2     0.900000E-01   1.00800           0
      3169 MEMB     14       CHL1     C25      CTL1    -0.900000E-01   12.0110           0
      3170 MEMB     14       CHL1     H25      HAL1     0.900000E-01   1.00800           0
      3171 MEMB     14       CHL1     C26      CTL3    -0.270000       12.0110           0
      3172 MEMB     14       CHL1     H26A     HAL3     0.900000E-01   1.00800           0
      3173 MEMB     14       CHL1     H26B     HAL3     0.900000E-01   1.00800           0
      3174 MEMB     14       CHL1     H26C     HAL3     0.900000E-01   1.00800           0
      3175 MEMB     14       CHL1     C27      CTL3    -0.270000       12.0110           0
      3176 MEMB     14       CHL1     H27A     HAL3     0.900000E-01   1.00800           0
      3177 MEMB     14       CHL1     H27B     HAL3     0.900000E-01   1.00800           0
      3178 MEMB     14       CHL1     H27C     HAL3     0.900000E-01   1.00800           0
      3179 MEMB     16       CHL1     C3       CRL1     0.140000       12.0110           0
      3180 MEMB     16       CHL1     H3       HGA1     0.900000E-01   1.00800           0
      3181 MEMB     16       CHL1     O3       OHL     -0.660000       15.9994           0
      3182 MEMB     16       CHL1     H3'      HOL      0.430000       1.00800           0
      3183 MEMB     16       CHL1     C4       CRL2    -0.180000       12.0110           0
      3184 MEMB     16       CHL1     H4A      HGA2     0.900000E-01   1.00800           0
      3185 MEMB     16       CHL1     H4B      HGA2     0.900000E-01   1.00800           0
      3186 MEMB     16       CHL1     C5       CEL1     0.000000       12.0110           0
      3187 MEMB     16       CHL1     C6       CEL1    -0.150000       12.0110           0
      3188 MEMB     16       CHL1     H6       HEL1     0.150000       1.00800           0
      3189 MEMB     16       CHL1     C7       CRL2    -0.180000       12.0110           0
      3190 MEMB     16       CHL1     H7A      HGA2     0.900000E-01   1.00800           0
      3191 MEMB     16       CHL1     H7B      HGA2     0.900000E-01   1.00800           0
      3192 MEMB     16       CHL1     C8       CRL1    -0.900000E-01   12.0110           0
      3193 MEMB     16       CHL1     H8       HGA1     0.900000E-01   1.00800           0
      3194 MEMB     16       CHL1     C14      CRL1    -0.900000E-01   12.0110           0
      3195 MEMB     16       CHL1     H14      HGA1     0.900000E-01   1.00800           0
      3196 MEMB     16       CHL1     C15      CRL2    -0.180000       12.0110           0
      3197 MEMB     16       CHL1     H15A     HGA2     0.900000E-01   1.00800           0
      3198 MEMB     16       CHL1     H15B     HGA2     0.900000E-01   1.00800           0
      3199 MEMB     16       CHL1     C16      CRL2    -0.180000       12.0110           0
      3200 MEMB     16       CHL1     H16A     HGA2     0.900000E-01   1.00800           0
      3201 MEMB     16       CHL1     H16B     HGA2     0.900000E-01   1.00800           0
      3202 MEMB     16       CHL1     C17      CRL1    -0.900000E-01   12.0110           0
      3203 MEMB     16       CHL1     H17      HGA1     0.900000E-01   1.00800           0
      3204 MEMB     16       CHL1     C13      CRL1     0.000000       12.0110           0
      3205 MEMB     16       CHL1     C18      CTL3    -0.270000       12.0110           0
      3206 MEMB     16       CHL1     H18A     HAL3     0.900000E-01   1.00800           0
      3207 MEMB     16       CHL1     H18B     HAL3     0.900000E-01   1.00800           0
      3208 MEMB     16       CHL1     H18C     HAL3     0.900000E-01   1.00800           0
      3209 MEMB     16       CHL1     C12      CRL2    -0.180000       12.0110           0
      3210 MEMB     16       CHL1     H12A     HGA2     0.900000E-01   1.00800           0
      3211 MEMB     16       CHL1     H12B     HGA2     0.900000E-01   1.00800           0
      3212 MEMB     16       CHL1     C11      CRL2    -0.180000       12.0110           0
      3213 MEMB     16       CHL1     H11A     HGA2     0.900000E-01   1.00800           0
      3214 MEMB     16       CHL1     H11B     HGA2     0.900000E-01   1.00800           0
      3215 MEMB     16       CHL1     C9       CRL1    -0.900000E-01   12.0110           0
      3216 MEMB     16       CHL1     H9       HGA1     0.900000E-01   1.00800           0
      3217 MEMB     16       CHL1     C10      CRL1     0.000000       12.0110           0
      3218 MEMB     16       CHL1     C19      CTL3    -0.270000       12.0110           0
      3219 MEMB     16       CHL1     H19A     HAL3     0.900000E-01   1.00800           0
      3220 MEMB     16       CHL1     H19B     HAL3     0.900000E-01   1.00800           0
      3221 MEMB     16       CHL1     H19C     HAL3     0.900000E-01   1.00800           0
      3222 MEMB     16       CHL1     C1       CRL2    -0.180000       12.0110           0
      3223 MEMB     16       CHL1     H1A      HGA2     0.900000E-01   1.00800           0
      3224 MEMB     16       CHL1     H1B      HGA2     0.900000E-01   1.00800           0
      3225 MEMB     16       CHL1     C2       CRL2    -0.180000       12.0110           0
      3226 MEMB     16       CHL1     H2A      HGA2     0.900000E-01   1.00800           0
      3227 MEMB     16       CHL1     H2B      HGA2     0.900000E-01   1.00800           0
      3228 MEMB     16       CHL1     C20      CTL1    -0.900000E-01   12.0110           0
      3229 MEMB     16       CHL1     H20      HAL1     0.900000E-01   1.00800           0
      3230 MEMB     16       CHL1     C21      CTL3    -0.270000       12.0110           0
      3231 MEMB     16       CHL1     H21A     HAL3     0.900000E-01   1.00800           0
      3232 MEMB     16       CHL1     H21B     HAL3     0.900000E-01   1.00800           0
      3233 MEMB     16       CHL1     H21C     HAL3     0.900000E-01   1.00800           0
      3234 MEMB     16       CHL1     C22      CTL2    -0.180000       12.0110           0
      3235 MEMB     16       CHL1     H22A     HAL2     0.900000E-01   1.00800           0
      3236 MEMB     16       CHL1     H22B     HAL2     0.900000E-01   1.00800           0
      3237 MEMB     16       CHL1     C23      CTL2    -0.180000       12.0110           0
      3238 MEMB     16       CHL1     H23A     HAL2     0.900000E-01   1.00800           0
      3239 MEMB     16       CHL1     H23B     HAL2     0.900000E-01   1.00800           0
      3240 MEMB     16       CHL1     C24      CTL2    -0.180000       12.0110           0
      3241 MEMB     16       CHL1     H24A     HAL2     0.900000E-01   1.00800           0
      3242 MEMB     16       CHL1     H24B     HAL2     0.900000E-01   1.00800           0
      3243 MEMB     16       CHL1     C25      CTL1    -0.900000E-01   12.0110           0
      3244 MEMB     16       CHL1     H25      HAL1     0.900000E-01   1.00800           0
      3245 MEMB     16       CHL1     C26      CTL3    -0.270000       12.0110           0
      3246 MEMB     16       CHL1     H26A     HAL3     0.900000E-01   1.00800           0
      3247 MEMB     16       CHL1     H26B     HAL3     0.900000E-01   1.00800           0
      3248 MEMB     16       CHL1     H26C     HAL3     0.900000E-01   1.00800           0
      3249 MEMB     16       CHL1     C27      CTL3    -0.270000       12.0110           0
      3250 MEMB     16       CHL1     H27A     HAL3     0.900000E-01   1.00800           0
      3251 MEMB     16       CHL1     H27B     HAL3     0.900000E-01   1.00800           0
      3252 MEMB     16       CHL1     H27C     HAL3     0.900000E-01   1.00800           0
      3253 MEMB     19       CHL1     C3       CRL1     0.140000       12.0110           0
      3254 MEMB     19       CHL1     H3       HGA1     0.900000E-01   1.00800           0
      3255 MEMB     19       CHL1     O3       OHL     -0.660000       15.9994           0
      3256 MEMB     19       CHL1     H3'      HOL      0.430000       1.00800           0
      3257 MEMB     19       CHL1     C4       CRL2    -0.180000       12.0110           0
      3258 MEMB     19       CHL1     H4A      HGA2     0.900000E-01   1.00800           0
      3259 MEMB     19       CHL1     H4B      HGA2     0.900000E-01   1.00800           0
      3260 MEMB     19       CHL1     C5       CEL1     0.000000       12.0110           0
      3261 MEMB     19       CHL1     C6       CEL1    -0.150000       12.0110           0
      3262 MEMB     19       CHL1     H6       HEL1     0.150000       1.00800           0
      3263 MEMB     19       CHL1     C7       CRL2    -0.180000       12.0110           0
      3264 MEMB     19       CHL1     H7A      HGA2     0.900000E-01   1.00800           0
      3265 MEMB     19       CHL1     H7B      HGA2     0.900000E-01   1.00800           0
      3266 MEMB     19       CHL1     C8       CRL1    -0.900000E-01   12.0110           0
      3267 MEMB     19       CHL1     H8       HGA1     0.900000E-01   1.00800           0
      3268 MEMB     19       CHL1     C14      CRL1    -0.900000E-01   12.0110           0
      3269 MEMB     19       CHL1     H14      HGA1     0.900000E-01   1.00800           0
      3270 MEMB     19       CHL1     C15      CRL2    -0.180000       12.0110           0
      3271 MEMB     19       CHL1     H15A     HGA2     0.900000E-01   1.00800           0
      3272 MEMB     19       CHL1     H15B     HGA2     0.900000E-01   1.00800           0
      3273 MEMB     19       CHL1     C16      CRL2    -0.180000       12.0110           0
      3274 MEMB     19       CHL1     H16A     HGA2     0.900000E-01   1.00800           0
      3275 MEMB     19       CHL1     H16B     HGA2     0.900000E-01   1.00800           0
      3276 MEMB     19       CHL1     C17      CRL1    -0.900000E-01   12.0110           0
      3277 MEMB     19       CHL1     H17      HGA1     0.900000E-01   1.00800           0
      3278 MEMB     19       CHL1     C13      CRL1     0.000000       12.0110           0
      3279 MEMB     19       CHL1     C18      CTL3    -0.270000       12.0110           0
      3280 MEMB     19       CHL1     H18A     HAL3     0.900000E-01   1.00800           0
      3281 MEMB     19       CHL1     H18B     HAL3     0.900000E-01   1.00800           0
      3282 MEMB     19       CHL1     H18C     HAL3     0.900000E-01   1.00800           0
      3283 MEMB     19       CHL1     C12      CRL2    -0.180000       12.0110           0
      3284 MEMB     19       CHL1     H12A     HGA2     0.900000E-01   1.00800           0
      3285 MEMB     19       CHL1     H12B     HGA2     0.900000E-01   1.00800           0
      3286 MEMB     19       CHL1     C11      CRL2    -0.180000       12.0110           0
      3287 MEMB     19       CHL1     H11A     HGA2     0.900000E-01   1.00800           0
      3288 MEMB     19       CHL1     H11B     HGA2     0.900000E-01   1.00800           0
      3289 MEMB     19       CHL1     C9       CRL1    -0.900000E-01   12.0110           0
      3290 MEMB     19       CHL1     H9       HGA1     0.900000E-01   1.00800           0
      3291 MEMB     19       CHL1     C10      CRL1     0.000000       12.0110           0
      3292 MEMB     19       CHL1     C19      CTL3    -0.270000       12.0110           0
      3293 MEMB     19       CHL1     H19A     HAL3     0.900000E-01   1.00800           0
      3294 MEMB     19       CHL1     H19B     HAL3     0.900000E-01   1.00800           0
      3295 MEMB     19       CHL1     H19C     HAL3     0.900000E-01   1.00800           0
      3296 MEMB     19       CHL1     C1       CRL2    -0.180000       12.0110           0
      3297 MEMB     19       CHL1     H1A      HGA2     0.900000E-01   1.00800           0
      3298 MEMB     19       CHL1     H1B      HGA2     0.900000E-01   1.00800           0
      3299 MEMB     19       CHL1     C2       CRL2    -0.180000       12.0110           0
      3300 MEMB     19       CHL1     H2A      HGA2     0.900000E-01   1.00800           0
      3301 MEMB     19       CHL1     H2B      HGA2     0.900000E-01   1.00800           0
      3302 MEMB     19       CHL1     C20      CTL1    -0.900000E-01   12.0110           0
      3303 MEMB     19       CHL1     H20      HAL1     0.900000E-01   1.00800           0
      3304 MEMB     19       CHL1     C21      CTL3    -0.270000       12.0110           0
      3305 MEMB     19       CHL1     H21A     HAL3     0.900000E-01   1.00800           0
      3306 MEMB     19       CHL1     H21B     HAL3     0.900000E-01   1.00800           0
      3307 MEMB     19       CHL1     H21C     HAL3     0.900000E-01   1.00800           0
      3308 MEMB     19       CHL1     C22      CTL2    -0.180000       12.0110           0
      3309 MEMB     19       CHL1     H22A     HAL2     0.900000E-01   1.00800           0
      3310 MEMB     19       CHL1     H22B     HAL2     0.900000E-01   1.00800           0
      3311 MEMB     19       CHL1     C23      CTL2    -0.180000       12.0110           0
      3312 MEMB     19       CHL1     H23A     HAL2     0.900000E-01   1.00800           0
      3313 MEMB     19       CHL1     H23B     HAL2     0.900000E-01   1.00800           0
      3314 MEMB     19       CHL1     C24      CTL2    -0.180000       12.0110           0
      3315 MEMB     19       CHL1     H24A     HAL2     0.900000E-01   1.00800           0
      3316 MEMB     19       CHL1     H24B     HAL2     0.900000E-01   1.00800           0
      3317 MEMB     19       CHL1     C25      CTL1    -0.900000E-01   12.0110           0
      3318 MEMB     19       CHL1     H25      HAL1     0.900000E-01   1.00800           0
      3319 MEMB     19       CHL1     C26      CTL3    -0.270000       12.0110           0
      3320 MEMB     19       CHL1     H26A     HAL3     0.900000E-01   1.00800           0
      3321 MEMB     19       CHL1     H26B     HAL3     0.900000E-01   1.00800           0
      3322 MEMB     19       CHL1     H26C     HAL3     0.900000E-01   1.00800           0
      3323 MEMB     19       CHL1     C27      CTL3    -0.270000       12.0110           0
      3324 MEMB     19       CHL1     H27A     HAL3     0.900000E-01   1.00800           0
      3325 MEMB     19       CHL1     H27B     HAL3     0.900000E-01   1.00800           0
      3326 MEMB     19       CHL1     H27C     HAL3     0.900000E-01   1.00800           0
      3327 MEMB     21       CHL1     C3       CRL1     0.140000       12.0110           0
      3328 MEMB     21       CHL1     H3       HGA1     0.900000E-01   1.00800           0
      3329 MEMB     21       CHL1     O3       OHL     -0.660000       15.9994           0
      3330 MEMB     21       CHL1     H3'      HOL      0.430000       1.00800           0
      3331 MEMB     21       CHL1     C4       CRL2    -0.180000       12.0110           0
      3332 MEMB     21       CHL1     H4A      HGA2     0.900000E-01   1.00800           0
      3333 MEMB     21       CHL1     H4B      HGA2     0.900000E-01   1.00800           0
      3334 MEMB     21       CHL1     C5       CEL1     0.000000       12.0110           0
      3335 MEMB     21       CHL1     C6       CEL1    -0.150000       12.0110           0
      3336 MEMB     21       CHL1     H6       HEL1     0.150000       1.00800           0
      3337 MEMB     21       CHL1     C7       CRL2    -0.180000       12.0110           0
      3338 MEMB     21       CHL1     H7A      HGA2     0.900000E-01   1.00800           0
      3339 MEMB     21       CHL1     H7B      HGA2     0.900000E-01   1.00800           0
      3340 MEMB     21       CHL1     C8       CRL1    -0.900000E-01   12.0110           0
      3341 MEMB     21       CHL1     H8       HGA1     0.900000E-01   1.00800           0
      3342 MEMB     21       CHL1     C14      CRL1    -0.900000E-01   12.0110           0
      3343 MEMB     21       CHL1     H14      HGA1     0.900000E-01   1.00800           0
      3344 MEMB     21       CHL1     C15      CRL2    -0.180000       12.0110           0
      3345 MEMB     21       CHL1     H15A     HGA2     0.900000E-01   1.00800           0
      3346 MEMB     21       CHL1     H15B     HGA2     0.900000E-01   1.00800           0
      3347 MEMB     21       CHL1     C16      CRL2    -0.180000       12.0110           0
      3348 MEMB     21       CHL1     H16A     HGA2     0.900000E-01   1.00800           0
      3349 MEMB     21       CHL1     H16B     HGA2     0.900000E-01   1.00800           0
      3350 MEMB     21       CHL1     C17      CRL1    -0.900000E-01   12.0110           0
      3351 MEMB     21       CHL1     H17      HGA1     0.900000E-01   1.00800           0
      3352 MEMB     21       CHL1     C13      CRL1     0.000000       12.0110           0
      3353 MEMB     21       CHL1     C18      CTL3    -0.270000       12.0110           0
      3354 MEMB     21       CHL1     H18A     HAL3     0.900000E-01   1.00800           0
      3355 MEMB     21       CHL1     H18B     HAL3     0.900000E-01   1.00800           0
      3356 MEMB     21       CHL1     H18C     HAL3     0.900000E-01   1.00800           0
      3357 MEMB     21       CHL1     C12      CRL2    -0.180000       12.0110           0
      3358 MEMB     21       CHL1     H12A     HGA2     0.900000E-01   1.00800           0
      3359 MEMB     21       CHL1     H12B     HGA2     0.900000E-01   1.00800           0
      3360 MEMB     21       CHL1     C11      CRL2    -0.180000       12.0110           0
      3361 MEMB     21       CHL1     H11A     HGA2     0.900000E-01   1.00800           0
      3362 MEMB     21       CHL1     H11B     HGA2     0.900000E-01   1.00800           0
      3363 MEMB     21       CHL1     C9       CRL1    -0.900000E-01   12.0110           0
      3364 MEMB     21       CHL1     H9       HGA1     0.900000E-01   1.00800           0
      3365 MEMB     21       CHL1     C10      CRL1     0.000000       12.0110           0
      3366 MEMB     21       CHL1     C19      CTL3    -0.270000       12.0110           0
      3367 MEMB     21       CHL1     H19A     HAL3     0.900000E-01   1.00800           0
      3368 MEMB     21       CHL1     H19B     HAL3     0.900000E-01   1.00800           0
      3369 MEMB     21       CHL1     H19C     HAL3     0.900000E-01   1.00800           0
      3370 MEMB     21       CHL1     C1       CRL2    -0.180000       12.0110           0
      3371 MEMB     21       CHL1     H1A      HGA2     0.900000E-01   1.00800           0
      3372 MEMB     21       CHL1     H1B      HGA2     0.900000E-01   1.00800           0
      3373 MEMB     21       CHL1     C2       CRL2    -0.180000       12.0110           0
      3374 MEMB     21       CHL1     H2A      HGA2     0.900000E-01   1.00800           0
      3375 MEMB     21       CHL1     H2B      HGA2     0.900000E-01   1.00800           0
      3376 MEMB     21       CHL1     C20      CTL1    -0.900000E-01   12.0110           0
      3377 MEMB     21       CHL1     H20      HAL1     0.900000E-01   1.00800           0
      3378 MEMB     21       CHL1     C21      CTL3    -0.270000       12.0110           0
      3379 MEMB     21       CHL1     H21A     HAL3     0.900000E-01   1.00800           0
      3380 MEMB     21       CHL1     H21B     HAL3     0.900000E-01   1.00800           0
      3381 MEMB     21       CHL1     H21C     HAL3     0.900000E-01   1.00800           0
      3382 MEMB     21       CHL1     C22      CTL2    -0.180000       12.0110           0
      3383 MEMB     21       CHL1     H22A     HAL2     0.900000E-01   1.00800           0
      3384 MEMB     21       CHL1     H22B     HAL2     0.900000E-01   1.00800           0
      3385 MEMB     21       CHL1     C23      CTL2    -0.180000       12.0110           0
      3386 MEMB     21       CHL1     H23A     HAL2     0.900000E-01   1.00800           0
      3387 MEMB     21       CHL1     H23B     HAL2     0.900000E-01   1.00800           0
      3388 MEMB     21       CHL1     C24      CTL2    -0.180000       12.0110           0
      3389 MEMB     21       CHL1     H24A     HAL2     0.900000E-01   1.00800           0
      3390 MEMB     21       CHL1     H24B     HAL2     0.900000E-01   1.00800           0
      3391 MEMB     21       CHL1     C25      CTL1    -0.900000E-01   12.0110           0
      3392 MEMB     21       CHL1     H25      HAL1     0.900000E-01   1.00800           0
      3393 MEMB     21       CHL1     C26      CTL3    -0.270000       12.0110           0
      3394 MEMB     21       CHL1     H26A     HAL3     0.900000E-01   1.00800           0
      3395 MEMB     21       CHL1     H26B     HAL3     0.900000E-01   1.00800           0
      3396 MEMB     21       CHL1     H26C     HAL3     0.900000E-01   1.00800           0
      3397 MEMB     21       CHL1     C27      CTL3    -0.270000       12.0110           0
      3398 MEMB     21       CHL1     H27A     HAL3     0.900000E-01   1.00800           0
      3399 MEMB     21       CHL1     H27B     HAL3     0.900000E-01   1.00800           0
      3400 MEMB     21       CHL1     H27C     HAL3     0.900000E-01   1.00800           0
      3401 MEMB     30       CHL1     C3       CRL1     0.140000       12.0110           0
      3402 MEMB     30       CHL1     H3       HGA1     0.900000E-01   1.00800           0
      3403 MEMB     30       CHL1     O3       OHL     -0.660000       15.9994           0
      3404 MEMB     30       CHL1     H3'      HOL      0.430000       1.00800           0
      3405 MEMB     30       CHL1     C4       CRL2    -0.180000       12.0110           0
      3406 MEMB     30       CHL1     H4A      HGA2     0.900000E-01   1.00800           0
      3407 MEMB     30       CHL1     H4B      HGA2     0.900000E-01   1.00800           0
      3408 MEMB     30       CHL1     C5       CEL1     0.000000       12.0110           0
      3409 MEMB     30       CHL1     C6       CEL1    -0.150000       12.0110           0
      3410 MEMB     30       CHL1     H6       HEL1     0.150000       1.00800           0
      3411 MEMB     30       CHL1     C7       CRL2    -0.180000       12.0110           0
      3412 MEMB     30       CHL1     H7A      HGA2     0.900000E-01   1.00800           0
      3413 MEMB     30       CHL1     H7B      HGA2     0.900000E-01   1.00800           0
      3414 MEMB     30       CHL1     C8       CRL1    -0.900000E-01   12.0110           0
      3415 MEMB     30       CHL1     H8       HGA1     0.900000E-01   1.00800           0
      3416 MEMB     30       CHL1     C14      CRL1    -0.900000E-01   12.0110           0
      3417 MEMB     30       CHL1     H14      HGA1     0.900000E-01   1.00800           0
      3418 MEMB     30       CHL1     C15      CRL2    -0.180000       12.0110           0
      3419 MEMB     30       CHL1     H15A     HGA2     0.900000E-01   1.00800           0
      3420 MEMB     30       CHL1     H15B     HGA2     0.900000E-01   1.00800           0
      3421 MEMB     30       CHL1     C16      CRL2    -0.180000       12.0110           0
      3422 MEMB     30       CHL1     H16A     HGA2     0.900000E-01   1.00800           0
      3423 MEMB     30       CHL1     H16B     HGA2     0.900000E-01   1.00800           0
      3424 MEMB     30       CHL1     C17      CRL1    -0.900000E-01   12.0110           0
      3425 MEMB     30       CHL1     H17      HGA1     0.900000E-01   1.00800           0
      3426 MEMB     30       CHL1     C13      CRL1     0.000000       12.0110           0
      3427 MEMB     30       CHL1     C18      CTL3    -0.270000       12.0110           0
      3428 MEMB     30       CHL1     H18A     HAL3     0.900000E-01   1.00800           0
      3429 MEMB     30       CHL1     H18B     HAL3     0.900000E-01   1.00800           0
      3430 MEMB     30       CHL1     H18C     HAL3     0.900000E-01   1.00800           0
      3431 MEMB     30       CHL1     C12      CRL2    -0.180000       12.0110           0
      3432 MEMB     30       CHL1     H12A     HGA2     0.900000E-01   1.00800           0
      3433 MEMB     30       CHL1     H12B     HGA2     0.900000E-01   1.00800           0
      3434 MEMB     30       CHL1     C11      CRL2    -0.180000       12.0110           0
      3435 MEMB     30       CHL1     H11A     HGA2     0.900000E-01   1.00800           0
      3436 MEMB     30       CHL1     H11B     HGA2     0.900000E-01   1.00800           0
      3437 MEMB     30       CHL1     C9       CRL1    -0.900000E-01   12.0110           0
      3438 MEMB     30       CHL1     H9       HGA1     0.900000E-01   1.00800           0
      3439 MEMB     30       CHL1     C10      CRL1     0.000000       12.0110           0
      3440 MEMB     30       CHL1     C19      CTL3    -0.270000       12.0110           0
      3441 MEMB     30       CHL1     H19A     HAL3     0.900000E-01   1.00800           0
      3442 MEMB     30       CHL1     H19B     HAL3     0.900000E-01   1.00800           0
      3443 MEMB     30       CHL1     H19C     HAL3     0.900000E-01   1.00800           0
      3444 MEMB     30       CHL1     C1       CRL2    -0.180000       12.0110           0
      3445 MEMB     30       CHL1     H1A      HGA2     0.900000E-01   1.00800           0
      3446 MEMB     30       CHL1     H1B      HGA2     0.900000E-01   1.00800           0
      3447 MEMB     30       CHL1     C2       CRL2    -0.180000       12.0110           0
      3448 MEMB     30       CHL1     H2A      HGA2     0.900000E-01   1.00800           0
      3449 MEMB     30       CHL1     H2B      HGA2     0.900000E-01   1.00800           0
      3450 MEMB     30       CHL1     C20      CTL1    -0.900000E-01   12.0110           0
      3451 MEMB     30       CHL1     H20      HAL1     0.900000E-01   1.00800           0
      3452 MEMB     30       CHL1     C21      CTL3    -0.270000       12.0110           0
      3453 MEMB     30       CHL1     H21A     HAL3     0.900000E-01   1.00800           0
      3454 MEMB     30       CHL1     H21B     HAL3     0.900000E-01   1.00800           0
      3455 MEMB     30       CHL1     H21C     HAL3     0.900000E-01   1.00800           0
      3456 MEMB     30       CHL1     C22      CTL2    -0.180000       12.0110           0
      3457 MEMB     30       CHL1     H22A     HAL2     0.900000E-01   1.00800           0
      3458 MEMB     30       CHL1     H22B     HAL2     0.900000E-01   1.00800           0
      3459 MEMB     30       CHL1     C23      CTL2    -0.180000       12.0110           0
      3460 MEMB     30       CHL1     H23A     HAL2     0.900000E-01   1.00800           0
      3461 MEMB     30       CHL1     H23B     HAL2     0.900000E-01   1.00800           0
      3462 MEMB     30       CHL1     C24      CTL2    -0.180000       12.0110           0
      3463 MEMB     30       CHL1     H24A     HAL2     0.900000E-01   1.00800           0
      3464 MEMB     30       CHL1     H24B     HAL2     0.900000E-01   1.00800           0
      3465 MEMB     30       CHL1     C25      CTL1    -0.900000E-01   12.0110           0
      3466 MEMB     30       CHL1     H25      HAL1     0.900000E-01   1.00800           0
      3467 MEMB     30       CHL1     C26      CTL3    -0.270000       12.0110           0
      3468 MEMB     30       CHL1     H26A     HAL3     0.900000E-01   1.00800           0
      3469 MEMB     30       CHL1     H26B     HAL3     0.900000E-01   1.00800           0
      3470 MEMB     30       CHL1     H26C     HAL3     0.900000E-01   1.00800           0
      3471 MEMB     30       CHL1     C27      CTL3    -0.270000       12.0110           0
      3472 MEMB     30       CHL1     H27A     HAL3     0.900000E-01   1.00800           0
      3473 MEMB     30       CHL1     H27B     HAL3     0.900000E-01   1.00800           0
      3474 MEMB     30       CHL1     H27C     HAL3     0.900000E-01   1.00800           0
      3475 MEMB     33       CHL1     C3       CRL1     0.140000       12.0110           0
      3476 MEMB     33       CHL1     H3       HGA1     0.900000E-01   1.00800           0
      3477 MEMB     33       CHL1     O3       OHL     -0.660000       15.9994           0
      3478 MEMB     33       CHL1     H3'      HOL      0.430000       1.00800           0
      3479 MEMB     33       CHL1     C4       CRL2    -0.180000       12.0110           0
      3480 MEMB     33       CHL1     H4A      HGA2     0.900000E-01   1.00800           0
      3481 MEMB     33       CHL1     H4B      HGA2     0.900000E-01   1.00800           0
      3482 MEMB     33       CHL1     C5       CEL1     0.000000       12.0110           0
      3483 MEMB     33       CHL1     C6       CEL1    -0.150000       12.0110           0
      3484 MEMB     33       CHL1     H6       HEL1     0.150000       1.00800           0
      3485 MEMB     33       CHL1     C7       CRL2    -0.180000       12.0110           0
      3486 MEMB     33       CHL1     H7A      HGA2     0.900000E-01   1.00800           0
      3487 MEMB     33       CHL1     H7B      HGA2     0.900000E-01   1.00800           0
      3488 MEMB     33       CHL1     C8       CRL1    -0.900000E-01   12.0110           0
      3489 MEMB     33       CHL1     H8       HGA1     0.900000E-01   1.00800           0
      3490 MEMB     33       CHL1     C14      CRL1    -0.900000E-01   12.0110           0
      3491 MEMB     33       CHL1     H14      HGA1     0.900000E-01   1.00800           0
      3492 MEMB     33       CHL1     C15      CRL2    -0.180000       12.0110           0
      3493 MEMB     33       CHL1     H15A     HGA2     0.900000E-01   1.00800           0
      3494 MEMB     33       CHL1     H15B     HGA2     0.900000E-01   1.00800           0
      3495 MEMB     33       CHL1     C16      CRL2    -0.180000       12.0110           0
      3496 MEMB     33       CHL1     H16A     HGA2     0.900000E-01   1.00800           0
      3497 MEMB     33       CHL1     H16B     HGA2     0.900000E-01   1.00800           0
      3498 MEMB     33       CHL1     C17      CRL1    -0.900000E-01   12.0110           0
      3499 MEMB     33       CHL1     H17      HGA1     0.900000E-01   1.00800           0
      3500 MEMB     33       CHL1     C13      CRL1     0.000000       12.0110           0
      3501 MEMB     33       CHL1     C18      CTL3    -0.270000       12.0110           0
      3502 MEMB     33       CHL1     H18A     HAL3     0.900000E-01   1.00800           0
      3503 MEMB     33       CHL1     H18B     HAL3     0.900000E-01   1.00800           0
      3504 MEMB     33       CHL1     H18C     HAL3     0.900000E-01   1.00800           0
      3505 MEMB     33       CHL1     C12      CRL2    -0.180000       12.0110           0
      3506 MEMB     33       CHL1     H12A     HGA2     0.900000E-01   1.00800           0
      3507 MEMB     33       CHL1     H12B     HGA2     0.900000E-01   1.00800           0
      3508 MEMB     33       CHL1     C11      CRL2    -0.180000       12.0110           0
      3509 MEMB     33       CHL1     H11A     HGA2     0.900000E-01   1.00800           0
      3510 MEMB     33       CHL1     H11B     HGA2     0.900000E-01   1.00800           0
      3511 MEMB     33       CHL1     C9       CRL1    -0.900000E-01   12.0110           0
      3512 MEMB     33       CHL1     H9       HGA1     0.900000E-01   1.00800           0
      3513 MEMB     33       CHL1     C10      CRL1     0.000000       12.0110           0
      3514 MEMB     33       CHL1     C19      CTL3    -0.270000       12.0110           0
      3515 MEMB     33       CHL1     H19A     HAL3     0.900000E-01   1.00800           0
      3516 MEMB     33       CHL1     H19B     HAL3     0.900000E-01   1.00800           0
      3517 MEMB     33       CHL1     H19C     HAL3     0.900000E-01   1.00800           0
      3518 MEMB     33       CHL1     C1       CRL2    -0.180000       12.0110           0
      3519 MEMB     33       CHL1     H1A      HGA2     0.900000E-01   1.00800           0
      3520 MEMB     33       CHL1     H1B      HGA2     0.900000E-01   1.00800           0
      3521 MEMB     33       CHL1     C2       CRL2    -0.180000       12.0110           0
      3522 MEMB     33       CHL1     H2A      HGA2     0.900000E-01   1.00800           0
      3523 MEMB     33       CHL1     H2B      HGA2     0.900000E-01   1.00800           0
      3524 MEMB     33       CHL1     C20      CTL1    -0.900000E-01   12.0110           0
      3525 MEMB     33       CHL1     H20      HAL1     0.900000E-01   1.00800           0
      3526 MEMB     33       CHL1     C21      CTL3    -0.270000       12.0110           0
      3527 MEMB     33       CHL1     H21A     HAL3     0.900000E-01   1.00800           0
      3528 MEMB     33       CHL1     H21B     HAL3     0.900000E-01   1.00800           0
      3529 MEMB     33       CHL1     H21C     HAL3     0.900000E-01   1.00800           0
      3530 MEMB     33       CHL1     C22      CTL2    -0.180000       12.0110           0
      3531 MEMB     33       CHL1     H22A     HAL2     0.900000E-01   1.00800           0
      3532 MEMB     33       CHL1     H22B     HAL2     0.900000E-01   1.00800           0
      3533 MEMB     33       CHL1     C23      CTL2    -0.180000       12.0110           0
      3534 MEMB     33       CHL1     H23A     HAL2     0.900000E-01   1.00800           0
      3535 MEMB     33       CHL1     H23B     HAL2     0.900000E-01   1.00800           0
      3536 MEMB     33       CHL1     C24      CTL2    -0.180000       12.0110           0
      3537 MEMB     33       CHL1     H24A     HAL2     0.900000E-01   1.00800           0
      3538 MEMB     33       CHL1     H24B     HAL2     0.900000E-01   1.00800           0
      3539 MEMB     33       CHL1     C25      CTL1    -0.900000E-01   12.0110           0
      3540 MEMB     33       CHL1     H25      HAL1     0.900000E-01   1.00800           0
      3541 MEMB     33       CHL1     C26      CTL3    -0.270000       12.0110           0
      3542 MEMB     33       CHL1     H26A     HAL3     0.900000E-01   1.00800           0
      3543 MEMB     33       CHL1     H26B     HAL3     0.900000E-01   1.00800           0
      3544 MEMB     33       CHL1     H26C     HAL3     0.900000E-01   1.00800           0
      3545 MEMB     33       CHL1     C27      CTL3    -0.270000       12.0110           0
      3546 MEMB     33       CHL1     H27A     HAL3     0.900000E-01   1.00800           0
      3547 MEMB     33       CHL1     H27B     HAL3     0.900000E-01   1.00800           0
      3548 MEMB     33       CHL1     H27C     HAL3     0.900000E-01   1.00800           0
      3549 MEMB     35       CHL1     C3       CRL1     0.140000       12.0110           0
      3550 MEMB     35       CHL1     H3       HGA1     0.900000E-01   1.00800           0
      3551 MEMB     35       CHL1     O3       OHL     -0.660000       15.9994           0
      3552 MEMB     35       CHL1     H3'      HOL      0.430000       1.00800           0
      3553 MEMB     35       CHL1     C4       CRL2    -0.180000       12.0110           0
      3554 MEMB     35       CHL1     H4A      HGA2     0.900000E-01   1.00800           0
      3555 MEMB     35       CHL1     H4B      HGA2     0.900000E-01   1.00800           0
      3556 MEMB     35       CHL1     C5       CEL1     0.000000       12.0110           0
      3557 MEMB     35       CHL1     C6       CEL1    -0.150000       12.0110           0
      3558 MEMB     35       CHL1     H6       HEL1     0.150000       1.00800           0
      3559 MEMB     35       CHL1     C7       CRL2    -0.180000       12.0110           0
      3560 MEMB     35       CHL1     H7A      HGA2     0.900000E-01   1.00800           0
      3561 MEMB     35       CHL1     H7B      HGA2     0.900000E-01   1.00800           0
      3562 MEMB     35       CHL1     C8       CRL1    -0.900000E-01   12.0110           0
      3563 MEMB     35       CHL1     H8       HGA1     0.900000E-01   1.00800           0
      3564 MEMB     35       CHL1     C14      CRL1    -0.900000E-01   12.0110           0
      3565 MEMB     35       CHL1     H14      HGA1     0.900000E-01   1.00800           0
      3566 MEMB     35       CHL1     C15      CRL2    -0.180000       12.0110           0
      3567 MEMB     35       CHL1     H15A     HGA2     0.900000E-01   1.00800           0
      3568 MEMB     35       CHL1     H15B     HGA2     0.900000E-01   1.00800           0
      3569 MEMB     35       CHL1     C16      CRL2    -0.180000       12.0110           0
      3570 MEMB     35       CHL1     H16A     HGA2     0.900000E-01   1.00800           0
      3571 MEMB     35       CHL1     H16B     HGA2     0.900000E-01   1.00800           0
      3572 MEMB     35       CHL1     C17      CRL1    -0.900000E-01   12.0110           0
      3573 MEMB     35       CHL1     H17      HGA1     0.900000E-01   1.00800           0
      3574 MEMB     35       CHL1     C13      CRL1     0.000000       12.0110           0
      3575 MEMB     35       CHL1     C18      CTL3    -0.270000       12.0110           0
      3576 MEMB     35       CHL1     H18A     HAL3     0.900000E-01   1.00800           0
      3577 MEMB     35       CHL1     H18B     HAL3     0.900000E-01   1.00800           0
      3578 MEMB     35       CHL1     H18C     HAL3     0.900000E-01   1.00800           0
      3579 MEMB     35       CHL1     C12      CRL2    -0.180000       12.0110           0
      3580 MEMB     35       CHL1     H12A     HGA2     0.900000E-01   1.00800           0
      3581 MEMB     35       CHL1     H12B     HGA2     0.900000E-01   1.00800           0
      3582 MEMB     35       CHL1     C11      CRL2    -0.180000       12.0110           0
      3583 MEMB     35       CHL1     H11A     HGA2     0.900000E-01   1.00800           0
      3584 MEMB     35       CHL1     H11B     HGA2     0.900000E-01   1.00800           0
      3585 MEMB     35       CHL1     C9       CRL1    -0.900000E-01   12.0110           0
      3586 MEMB     35       CHL1     H9       HGA1     0.900000E-01   1.00800           0
      3587 MEMB     35       CHL1     C10      CRL1     0.000000       12.0110           0
      3588 MEMB     35       CHL1     C19      CTL3    -0.270000       12.0110           0
      3589 MEMB     35       CHL1     H19A     HAL3     0.900000E-01   1.00800           0
      3590 MEMB     35       CHL1     H19B     HAL3     0.900000E-01   1.00800           0
      3591 MEMB     35       CHL1     H19C     HAL3     0.900000E-01   1.00800           0
      3592 MEMB     35       CHL1     C1       CRL2    -0.180000       12.0110           0
      3593 MEMB     35       CHL1     H1A      HGA2     0.900000E-01   1.00800           0
      3594 MEMB     35       CHL1     H1B      HGA2     0.900000E-01   1.00800           0
      3595 MEMB     35       CHL1     C2       CRL2    -0.180000       12.0110           0
      3596 MEMB     35       CHL1     H2A      HGA2     0.900000E-01   1.00800           0
      3597 MEMB     35       CHL1     H2B      HGA2     0.900000E-01   1.00800           0
      3598 MEMB     35       CHL1     C20      CTL1    -0.900000E-01   12.0110           0
      3599 MEMB     35       CHL1     H20      HAL1     0.900000E-01   1.00800           0
      3600 MEMB     35       CHL1     C21      CTL3    -0.270000       12.0110           0
      3601 MEMB     35       CHL1     H21A     HAL3     0.900000E-01   1.00800           0
      3602 MEMB     35       CHL1     H21B     HAL3     0.900000E-01   1.00800           0
      3603 MEMB     35       CHL1     H21C     HAL3     0.900000E-01   1.00800           0
      3604 MEMB     35       CHL1     C22      CTL2    -0.180000       12.0110           0
      3605 MEMB     35       CHL1     H22A     HAL2     0.900000E-01   1.00800           0
      3606 MEMB     35       CHL1     H22B     HAL2     0.900000E-01   1.00800           0
      3607 MEMB     35       CHL1     C23      CTL2    -0.180000       12.0110           0
      3608 MEMB     35       CHL1     H23A     HAL2     0.900000E-01   1.00800           0
      3609 MEMB     35       CHL1     H23B     HAL2     0.900000E-01   1.00800           0
      3610 MEMB     35       CHL1     C24      CTL2    -0.180000       12.0110           0
      3611 MEMB     35       CHL1     H24A     HAL2     0.900000E-01   1.00800           0
      3612 MEMB     35       CHL1     H24B     HAL2     0.900000E-01   1.00800           0
      3613 MEMB     35       CHL1     C25      CTL1    -0.900000E-01   12.0110           0
      3614 MEMB     35       CHL1     H25      HAL1     0.900000E-01   1.00800           0
      3615 MEMB     35       CHL1     C26      CTL3    -0.270000       12.0110           0
      3616 MEMB     35       CHL1     H26A     HAL3     0.900000E-01   1.00800           0
      3617 MEMB     35       CHL1     H26B     HAL3     0.900000E-01   1.00800           0
      3618 MEMB     35       CHL1     H26C     HAL3     0.900000E-01   1.00800           0
      3619 MEMB     35       CHL1     C27      CTL3    -0.270000       12.0110           0
      3620 MEMB     35       CHL1     H27A     HAL3     0.900000E-01   1.00800           0
      3621 MEMB     35       CHL1     H27B     HAL3     0.900000E-01   1.00800           0
      3622 MEMB     35       CHL1     H27C     HAL3     0.900000E-01   1.00800           0
      3623 MEMB     36       CHL1     C3       CRL1     0.140000       12.0110           0
      3624 MEMB     36       CHL1     H3       HGA1     0.900000E-01   1.00800           0
      3625 MEMB     36       CHL1     O3       OHL     -0.660000       15.9994           0
      3626 MEMB     36       CHL1     H3'      HOL      0.430000       1.00800           0
      3627 MEMB     36       CHL1     C4       CRL2    -0.180000       12.0110           0
      3628 MEMB     36       CHL1     H4A      HGA2     0.900000E-01   1.00800           0
      3629 MEMB     36       CHL1     H4B      HGA2     0.900000E-01   1.00800           0
      3630 MEMB     36       CHL1     C5       CEL1     0.000000       12.0110           0
      3631 MEMB     36       CHL1     C6       CEL1    -0.150000       12.0110           0
      3632 MEMB     36       CHL1     H6       HEL1     0.150000       1.00800           0
      3633 MEMB     36       CHL1     C7       CRL2    -0.180000       12.0110           0
      3634 MEMB     36       CHL1     H7A      HGA2     0.900000E-01   1.00800           0
      3635 MEMB     36       CHL1     H7B      HGA2     0.900000E-01   1.00800           0
      3636 MEMB     36       CHL1     C8       CRL1    -0.900000E-01   12.0110           0
      3637 MEMB     36       CHL1     H8       HGA1     0.900000E-01   1.00800           0
      3638 MEMB     36       CHL1     C14      CRL1    -0.900000E-01   12.0110           0
      3639 MEMB     36       CHL1     H14      HGA1     0.900000E-01   1.00800           0
      3640 MEMB     36       CHL1     C15      CRL2    -0.180000       12.0110           0
      3641 MEMB     36       CHL1     H15A     HGA2     0.900000E-01   1.00800           0
      3642 MEMB     36       CHL1     H15B     HGA2     0.900000E-01   1.00800           0
      3643 MEMB     36       CHL1     C16      CRL2    -0.180000       12.0110           0
      3644 MEMB     36       CHL1     H16A     HGA2     0.900000E-01   1.00800           0
      3645 MEMB     36       CHL1     H16B     HGA2     0.900000E-01   1.00800           0
      3646 MEMB     36       CHL1     C17      CRL1    -0.900000E-01   12.0110           0
      3647 MEMB     36       CHL1     H17      HGA1     0.900000E-01   1.00800           0
      3648 MEMB     36       CHL1     C13      CRL1     0.000000       12.0110           0
      3649 MEMB     36       CHL1     C18      CTL3    -0.270000       12.0110           0
      3650 MEMB     36       CHL1     H18A     HAL3     0.900000E-01   1.00800           0
      3651 MEMB     36       CHL1     H18B     HAL3     0.900000E-01   1.00800           0
      3652 MEMB     36       CHL1     H18C     HAL3     0.900000E-01   1.00800           0
      3653 MEMB     36       CHL1     C12      CRL2    -0.180000       12.0110           0
      3654 MEMB     36       CHL1     H12A     HGA2     0.900000E-01   1.00800           0
      3655 MEMB     36       CHL1     H12B     HGA2     0.900000E-01   1.00800           0
      3656 MEMB     36       CHL1     C11      CRL2    -0.180000       12.0110           0
      3657 MEMB     36       CHL1     H11A     HGA2     0.900000E-01   1.00800           0
      3658 MEMB     36       CHL1     H11B     HGA2     0.900000E-01   1.00800           0
      3659 MEMB     36       CHL1     C9       CRL1    -0.900000E-01   12.0110           0
      3660 MEMB     36       CHL1     H9       HGA1     0.900000E-01   1.00800           0
      3661 MEMB     36       CHL1     C10      CRL1     0.000000       12.0110           0
      3662 MEMB     36       CHL1     C19      CTL3    -0.270000       12.0110           0
      3663 MEMB     36       CHL1     H19A     HAL3     0.900000E-01   1.00800           0
      3664 MEMB     36       CHL1     H19B     HAL3     0.900000E-01   1.00800           0
      3665 MEMB     36       CHL1     H19C     HAL3     0.900000E-01   1.00800           0
      3666 MEMB     36       CHL1     C1       CRL2    -0.180000       12.0110           0
      3667 MEMB     36       CHL1     H1A      HGA2     0.900000E-01   1.00800           0
      3668 MEMB     36       CHL1     H1B      HGA2     0.900000E-01   1.00800           0
      3669 MEMB     36       CHL1     C2       CRL2    -0.180000       12.0110           0
      3670 MEMB     36       CHL1     H2A      HGA2     0.900000E-01   1.00800           0
      3671 MEMB     36       CHL1     H2B      HGA2     0.900000E-01   1.00800           0
      3672 MEMB     36       CHL1     C20      CTL1    -0.900000E-01   12.0110           0
      3673 MEMB     36       CHL1     H20      HAL1     0.900000E-01   1.00800           0
      3674 MEMB     36       CHL1     C21      CTL3    -0.270000       12.0110           0
      3675 MEMB     36       CHL1     H21A     HAL3     0.900000E-01   1.00800           0
      3676 MEMB     36       CHL1     H21B     HAL3     0.900000E-01   1.00800           0
      3677 MEMB     36       CHL1     H21C     HAL3     0.900000E-01   1.00800           0
      3678 MEMB     36       CHL1     C22      CTL2    -0.180000       12.0110           0
      3679 MEMB     36       CHL1     H22A     HAL2     0.900000E-01   1.00800           0
      3680 MEMB     36       CHL1     H22B     HAL2     0.900000E-01   1.00800           0
      3681 MEMB     36       CHL1     C23      CTL2    -0.180000       12.0110           0
      3682 MEMB     36       CHL1     H23A     HAL2     0.900000E-01   1.00800           0
      3683 MEMB     36       CHL1     H23B     HAL2     0.900000E-01   1.00800           0
      3684 MEMB     36       CHL1     C24      CTL2    -0.180000       12.0110           0
      3685 MEMB     36       CHL1     H24A     HAL2     0.900000E-01   1.00800           0
      3686 MEMB     36       CHL1     H24B     HAL2     0.900000E-01   1.00800           0
      3687 MEMB     36       CHL1     C25      CTL1    -0.900000E-01   12.0110           0
      3688 MEMB     36       CHL1     H25      HAL1     0.900000E-01   1.00800           0
      3689 MEMB     36       CHL1     C26      CTL3    -0.270000       12.0110           0
      3690 MEMB     36       CHL1     H26A     HAL3     0.900000E-01   1.00800           0
      3691 MEMB     36       CHL1     H26B     HAL3     0.900000E-01   1.00800           0
      3692 MEMB     36       CHL1     H26C     HAL3     0.900000E-01   1.00800           0
      3693 MEMB     36       CHL1     C27      CTL3    -0.270000       12.0110           0
      3694 MEMB     36       CHL1     H27A     HAL3     0.900000E-01   1.00800           0
      3695 MEMB     36       CHL1     H27B     HAL3     0.900000E-01   1.00800           0
      3696 MEMB     36       CHL1     H27C     HAL3     0.900000E-01   1.00800           0
      3697 MEMB     40       CHL1     C3       CRL1     0.140000       12.0110           0
      3698 MEMB     40       CHL1     H3       HGA1     0.900000E-01   1.00800           0
      3699 MEMB     40       CHL1     O3       OHL     -0.660000       15.9994           0
      3700 MEMB     40       CHL1     H3'      HOL      0.430000       1.00800           0
      3701 MEMB     40       CHL1     C4       CRL2    -0.180000       12.0110           0
      3702 MEMB     40       CHL1     H4A      HGA2     0.900000E-01   1.00800           0
      3703 MEMB     40       CHL1     H4B      HGA2     0.900000E-01   1.00800           0
      3704 MEMB     40       CHL1     C5       CEL1     0.000000       12.0110           0
      3705 MEMB     40       CHL1     C6       CEL1    -0.150000       12.0110           0
      3706 MEMB     40       CHL1     H6       HEL1     0.150000       1.00800           0
      3707 MEMB     40       CHL1     C7       CRL2    -0.180000       12.0110           0
      3708 MEMB     40       CHL1     H7A      HGA2     0.900000E-01   1.00800           0
      3709 MEMB     40       CHL1     H7B      HGA2     0.900000E-01   1.00800           0
      3710 MEMB     40       CHL1     C8       CRL1    -0.900000E-01   12.0110           0
      3711 MEMB     40       CHL1     H8       HGA1     0.900000E-01   1.00800           0
      3712 MEMB     40       CHL1     C14      CRL1    -0.900000E-01   12.0110           0
      3713 MEMB     40       CHL1     H14      HGA1     0.900000E-01   1.00800           0
      3714 MEMB     40       CHL1     C15      CRL2    -0.180000       12.0110           0
      3715 MEMB     40       CHL1     H15A     HGA2     0.900000E-01   1.00800           0
      3716 MEMB     40       CHL1     H15B     HGA2     0.900000E-01   1.00800           0
      3717 MEMB     40       CHL1     C16      CRL2    -0.180000       12.0110           0
      3718 MEMB     40       CHL1     H16A     HGA2     0.900000E-01   1.00800           0
      3719 MEMB     40       CHL1     H16B     HGA2     0.900000E-01   1.00800           0
      3720 MEMB     40       CHL1     C17      CRL1    -0.900000E-01   12.0110           0
      3721 MEMB     40       CHL1     H17      HGA1     0.900000E-01   1.00800           0
      3722 MEMB     40       CHL1     C13      CRL1     0.000000       12.0110           0
      3723 MEMB     40       CHL1     C18      CTL3    -0.270000       12.0110           0
      3724 MEMB     40       CHL1     H18A     HAL3     0.900000E-01   1.00800           0
      3725 MEMB     40       CHL1     H18B     HAL3     0.900000E-01   1.00800           0
      3726 MEMB     40       CHL1     H18C     HAL3     0.900000E-01   1.00800           0
      3727 MEMB     40       CHL1     C12      CRL2    -0.180000       12.0110           0
      3728 MEMB     40       CHL1     H12A     HGA2     0.900000E-01   1.00800           0
      3729 MEMB     40       CHL1     H12B     HGA2     0.900000E-01   1.00800           0
      3730 MEMB     40       CHL1     C11      CRL2    -0.180000       12.0110           0
      3731 MEMB     40       CHL1     H11A     HGA2     0.900000E-01   1.00800           0
      3732 MEMB     40       CHL1     H11B     HGA2     0.900000E-01   1.00800           0
      3733 MEMB     40       CHL1     C9       CRL1    -0.900000E-01   12.0110           0
      3734 MEMB     40       CHL1     H9       HGA1     0.900000E-01   1.00800           0
      3735 MEMB     40       CHL1     C10      CRL1     0.000000       12.0110           0
      3736 MEMB     40       CHL1     C19      CTL3    -0.270000       12.0110           0
      3737 MEMB     40       CHL1     H19A     HAL3     0.900000E-01   1.00800           0
      3738 MEMB     40       CHL1     H19B     HAL3     0.900000E-01   1.00800           0
      3739 MEMB     40       CHL1     H19C     HAL3     0.900000E-01   1.00800           0
      3740 MEMB     40       CHL1     C1       CRL2    -0.180000       12.0110           0
      3741 MEMB     40       CHL1     H1A      HGA2     0.900000E-01   1.00800           0
      3742 MEMB     40       CHL1     H1B      HGA2     0.900000E-01   1.00800           0
      3743 MEMB     40       CHL1     C2       CRL2    -0.180000       12.0110           0
      3744 MEMB     40       CHL1     H2A      HGA2     0.900000E-01   1.00800           0
      3745 MEMB     40       CHL1     H2B      HGA2     0.900000E-01   1.00800           0
      3746 MEMB     40       CHL1     C20      CTL1    -0.900000E-01   12.0110           0
      3747 MEMB     40       CHL1     H20      HAL1     0.900000E-01   1.00800           0
      3748 MEMB     40       CHL1     C21      CTL3    -0.270000       12.0110           0
      3749 MEMB     40       CHL1     H21A     HAL3     0.900000E-01   1.00800           0
      3750 MEMB     40       CHL1     H21B     HAL3     0.900000E-01   1.00800           0
      3751 MEMB     40       CHL1     H21C     HAL3     0.900000E-01   1.00800           0
      3752 MEMB     40       CHL1     C22      CTL2    -0.180000       12.0110           0
      3753 MEMB     40       CHL1     H22A     HAL2     0.900000E-01   1.00800           0
      3754 MEMB     40       CHL1     H22B     HAL2     0.900000E-01   1.00800           0
      3755 MEMB     40       CHL1     C23      CTL2    -0.180000       12.0110           0
      3756 MEMB     40       CHL1     H23A     HAL2     0.900000E-01   1.00800           0
      3757 MEMB     40       CHL1     H23B     HAL2     0.900000E-01   1.00800           0
      3758 MEMB     40       CHL1     C24      CTL2    -0.180000       12.0110           0
      3759 MEMB     40       CHL1     H24A     HAL2     0.900000E-01   1.00800           0
      3760 MEMB     40       CHL1     H24B     HAL2     0.900000E-01   1.00800           0
      3761 MEMB     40       CHL1     C25      CTL1    -0.900000E-01   12.0110           0
      3762 MEMB     40       CHL1     H25      HAL1     0.900000E-01   1.00800           0
      3763 MEMB     40       CHL1     C26      CTL3    -0.270000       12.0110           0
      3764 MEMB     40       CHL1     H26A     HAL3     0.900000E-01   1.00800           0
      3765 MEMB     40       CHL1     H26B     HAL3     0.900000E-01   1.00800           0
      3766 MEMB     40       CHL1     H26C     HAL3     0.900000E-01   1.00800           0
      3767 MEMB     40       CHL1     C27      CTL3    -0.270000       12.0110           0
      3768 MEMB     40       CHL1     H27A     HAL3     0.900000E-01   1.00800           0
      3769 MEMB     40       CHL1     H27B     HAL3     0.900000E-01   1.00800           0
      3770 MEMB     40       CHL1     H27C     HAL3     0.900000E-01   1.00800           0
      3771 MEMB     48       CHL1     C3       CRL1     0.140000       12.0110           0
      3772 MEMB     48       CHL1     H3       HGA1     0.900000E-01   1.00800           0
      3773 MEMB     48       CHL1     O3       OHL     -0.660000       15.9994           0
      3774 MEMB     48       CHL1     H3'      HOL      0.430000       1.00800           0
      3775 MEMB     48       CHL1     C4       CRL2    -0.180000       12.0110           0
      3776 MEMB     48       CHL1     H4A      HGA2     0.900000E-01   1.00800           0
      3777 MEMB     48       CHL1     H4B      HGA2     0.900000E-01   1.00800           0
      3778 MEMB     48       CHL1     C5       CEL1     0.000000       12.0110           0
      3779 MEMB     48       CHL1     C6       CEL1    -0.150000       12.0110           0
      3780 MEMB     48       CHL1     H6       HEL1     0.150000       1.00800           0
      3781 MEMB     48       CHL1     C7       CRL2    -0.180000       12.0110           0
      3782 MEMB     48       CHL1     H7A      HGA2     0.900000E-01   1.00800           0
      3783 MEMB     48       CHL1     H7B      HGA2     0.900000E-01   1.00800           0
      3784 MEMB     48       CHL1     C8       CRL1    -0.900000E-01   12.0110           0
      3785 MEMB     48       CHL1     H8       HGA1     0.900000E-01   1.00800           0
      3786 MEMB     48       CHL1     C14      CRL1    -0.900000E-01   12.0110           0
      3787 MEMB     48       CHL1     H14      HGA1     0.900000E-01   1.00800           0
      3788 MEMB     48       CHL1     C15      CRL2    -0.180000       12.0110           0
      3789 MEMB     48       CHL1     H15A     HGA2     0.900000E-01   1.00800           0
      3790 MEMB     48       CHL1     H15B     HGA2     0.900000E-01   1.00800           0
      3791 MEMB     48       CHL1     C16      CRL2    -0.180000       12.0110           0
      3792 MEMB     48       CHL1     H16A     HGA2     0.900000E-01   1.00800           0
      3793 MEMB     48       CHL1     H16B     HGA2     0.900000E-01   1.00800           0
      3794 MEMB     48       CHL1     C17      CRL1    -0.900000E-01   12.0110           0
      3795 MEMB     48       CHL1     H17      HGA1     0.900000E-01   1.00800           0
      3796 MEMB     48       CHL1     C13      CRL1     0.000000       12.0110           0
      3797 MEMB     48       CHL1     C18      CTL3    -0.270000       12.0110           0
      3798 MEMB     48       CHL1     H18A     HAL3     0.900000E-01   1.00800           0
      3799 MEMB     48       CHL1     H18B     HAL3     0.900000E-01   1.00800           0
      3800 MEMB     48       CHL1     H18C     HAL3     0.900000E-01   1.00800           0
      3801 MEMB     48       CHL1     C12      CRL2    -0.180000       12.0110           0
      3802 MEMB     48       CHL1     H12A     HGA2     0.900000E-01   1.00800           0
      3803 MEMB     48       CHL1     H12B     HGA2     0.900000E-01   1.00800           0
      3804 MEMB     48       CHL1     C11      CRL2    -0.180000       12.0110           0
      3805 MEMB     48       CHL1     H11A     HGA2     0.900000E-01   1.00800           0
      3806 MEMB     48       CHL1     H11B     HGA2     0.900000E-01   1.00800           0
      3807 MEMB     48       CHL1     C9       CRL1    -0.900000E-01   12.0110           0
      3808 MEMB     48       CHL1     H9       HGA1     0.900000E-01   1.00800           0
      3809 MEMB     48       CHL1     C10      CRL1     0.000000       12.0110           0
      3810 MEMB     48       CHL1     C19      CTL3    -0.270000       12.0110           0
      3811 MEMB     48       CHL1     H19A     HAL3     0.900000E-01   1.00800           0
      3812 MEMB     48       CHL1     H19B     HAL3     0.900000E-01   1.00800           0
      3813 MEMB     48       CHL1     H19C     HAL3     0.900000E-01   1.00800           0
      3814 MEMB     48       CHL1     C1       CRL2    -0.180000       12.0110           0
      3815 MEMB     48       CHL1     H1A      HGA2     0.900000E-01   1.00800           0
      3816 MEMB     48       CHL1     H1B      HGA2     0.900000E-01   1.00800           0
      3817 MEMB     48       CHL1     C2       CRL2    -0.180000       12.0110           0
      3818 MEMB     48       CHL1     H2A      HGA2     0.900000E-01   1.00800           0
      3819 MEMB     48       CHL1     H2B      HGA2     0.900000E-01   1.00800           0
      3820 MEMB     48       CHL1     C20      CTL1    -0.900000E-01   12.0110           0
      3821 MEMB     48       CHL1     H20      HAL1     0.900000E-01   1.00800           0
      3822 MEMB     48       CHL1     C21      CTL3    -0.270000       12.0110           0
      3823 MEMB     48       CHL1     H21A     HAL3     0.900000E-01   1.00800           0
      3824 MEMB     48       CHL1     H21B     HAL3     0.900000E-01   1.00800           0
      3825 MEMB     48       CHL1     H21C     HAL3     0.900000E-01   1.00800           0
      3826 MEMB     48       CHL1     C22      CTL2    -0.180000       12.0110           0
      3827 MEMB     48       CHL1     H22A     HAL2     0.900000E-01   1.00800           0
      3828 MEMB     48       CHL1     H22B     HAL2     0.900000E-01   1.00800           0
      3829 MEMB     48       CHL1     C23      CTL2    -0.180000       12.0110           0
      3830 MEMB     48       CHL1     H23A     HAL2     0.900000E-01   1.00800           0
      3831 MEMB     48       CHL1     H23B     HAL2     0.900000E-01   1.00800           0
      3832 MEMB     48       CHL1     C24      CTL2    -0.180000       12.0110           0
      3833 MEMB     48       CHL1     H24A     HAL2     0.900000E-01   1.00800           0
      3834 MEMB     48       CHL1     H24B     HAL2     0.900000E-01   1.00800           0
      3835 MEMB     48       CHL1     C25      CTL1    -0.900000E-01   12.0110           0
      3836 MEMB     48       CHL1     H25      HAL1     0.900000E-01   1.00800           0
      3837 MEMB     48       CHL1     C26      CTL3    -0.270000       12.0110           0
      3838 MEMB     48       CHL1     H26A     HAL3     0.900000E-01   1.00800           0
      3839 MEMB     48       CHL1     H26B     HAL3     0.900000E-01   1.00800           0
      3840 MEMB     48       CHL1     H26C     HAL3     0.900000E-01   1.00800           0
      3841 MEMB     48       CHL1     C27      CTL3    -0.270000       12.0110           0
      3842 MEMB     48       CHL1     H27A     HAL3     0.900000E-01   1.00800           0
      3843 MEMB     48       CHL1     H27B     HAL3     0.900000E-01   1.00800           0
      3844 MEMB     48       CHL1     H27C     HAL3     0.900000E-01   1.00800           0
      3845 MEMB     50       CHL1     C3       CRL1     0.140000       12.0110           0
      3846 MEMB     50       CHL1     H3       HGA1     0.900000E-01   1.00800           0
      3847 MEMB     50       CHL1     O3       OHL     -0.660000       15.9994           0
      3848 MEMB     50       CHL1     H3'      HOL      0.430000       1.00800           0
      3849 MEMB     50       CHL1     C4       CRL2    -0.180000       12.0110           0
      3850 MEMB     50       CHL1     H4A      HGA2     0.900000E-01   1.00800           0
      3851 MEMB     50       CHL1     H4B      HGA2     0.900000E-01   1.00800           0
      3852 MEMB     50       CHL1     C5       CEL1     0.000000       12.0110           0
      3853 MEMB     50       CHL1     C6       CEL1    -0.150000       12.0110           0
      3854 MEMB     50       CHL1     H6       HEL1     0.150000       1.00800           0
      3855 MEMB     50       CHL1     C7       CRL2    -0.180000       12.0110           0
      3856 MEMB     50       CHL1     H7A      HGA2     0.900000E-01   1.00800           0
      3857 MEMB     50       CHL1     H7B      HGA2     0.900000E-01   1.00800           0
      3858 MEMB     50       CHL1     C8       CRL1    -0.900000E-01   12.0110           0
      3859 MEMB     50       CHL1     H8       HGA1     0.900000E-01   1.00800           0
      3860 MEMB     50       CHL1     C14      CRL1    -0.900000E-01   12.0110           0
      3861 MEMB     50       CHL1     H14      HGA1     0.900000E-01   1.00800           0
      3862 MEMB     50       CHL1     C15      CRL2    -0.180000       12.0110           0
      3863 MEMB     50       CHL1     H15A     HGA2     0.900000E-01   1.00800           0
      3864 MEMB     50       CHL1     H15B     HGA2     0.900000E-01   1.00800           0
      3865 MEMB     50       CHL1     C16      CRL2    -0.180000       12.0110           0
      3866 MEMB     50       CHL1     H16A     HGA2     0.900000E-01   1.00800           0
      3867 MEMB     50       CHL1     H16B     HGA2     0.900000E-01   1.00800           0
      3868 MEMB     50       CHL1     C17      CRL1    -0.900000E-01   12.0110           0
      3869 MEMB     50       CHL1     H17      HGA1     0.900000E-01   1.00800           0
      3870 MEMB     50       CHL1     C13      CRL1     0.000000       12.0110           0
      3871 MEMB     50       CHL1     C18      CTL3    -0.270000       12.0110           0
      3872 MEMB     50       CHL1     H18A     HAL3     0.900000E-01   1.00800           0
      3873 MEMB     50       CHL1     H18B     HAL3     0.900000E-01   1.00800           0
      3874 MEMB     50       CHL1     H18C     HAL3     0.900000E-01   1.00800           0
      3875 MEMB     50       CHL1     C12      CRL2    -0.180000       12.0110           0
      3876 MEMB     50       CHL1     H12A     HGA2     0.900000E-01   1.00800           0
      3877 MEMB     50       CHL1     H12B     HGA2     0.900000E-01   1.00800           0
      3878 MEMB     50       CHL1     C11      CRL2    -0.180000       12.0110           0
      3879 MEMB     50       CHL1     H11A     HGA2     0.900000E-01   1.00800           0
      3880 MEMB     50       CHL1     H11B     HGA2     0.900000E-01   1.00800           0
      3881 MEMB     50       CHL1     C9       CRL1    -0.900000E-01   12.0110           0
      3882 MEMB     50       CHL1     H9       HGA1     0.900000E-01   1.00800           0
      3883 MEMB     50       CHL1     C10      CRL1     0.000000       12.0110           0
      3884 MEMB     50       CHL1     C19      CTL3    -0.270000       12.0110           0
      3885 MEMB     50       CHL1     H19A     HAL3     0.900000E-01   1.00800           0
      3886 MEMB     50       CHL1     H19B     HAL3     0.900000E-01   1.00800           0
      3887 MEMB     50       CHL1     H19C     HAL3     0.900000E-01   1.00800           0
      3888 MEMB     50       CHL1     C1       CRL2    -0.180000       12.0110           0
      3889 MEMB     50       CHL1     H1A      HGA2     0.900000E-01   1.00800           0
      3890 MEMB     50       CHL1     H1B      HGA2     0.900000E-01   1.00800           0
      3891 MEMB     50       CHL1     C2       CRL2    -0.180000       12.0110           0
      3892 MEMB     50       CHL1     H2A      HGA2     0.900000E-01   1.00800           0
      3893 MEMB     50       CHL1     H2B      HGA2     0.900000E-01   1.00800           0
      3894 MEMB     50       CHL1     C20      CTL1    -0.900000E-01   12.0110           0
      3895 MEMB     50       CHL1     H20      HAL1     0.900000E-01   1.00800           0
      3896 MEMB     50       CHL1     C21      CTL3    -0.270000       12.0110           0
      3897 MEMB     50       CHL1     H21A     HAL3     0.900000E-01   1.00800           0
      3898 MEMB     50       CHL1     H21B     HAL3     0.900000E-01   1.00800           0
      3899 MEMB     50       CHL1     H21C     HAL3     0.900000E-01   1.00800           0
      3900 MEMB     50       CHL1     C22      CTL2    -0.180000       12.0110           0
      3901 MEMB     50       CHL1     H22A     HAL2     0.900000E-01   1.00800           0
      3902 MEMB     50       CHL1     H22B     HAL2     0.900000E-01   1.00800           0
      3903 MEMB     50       CHL1     C23      CTL2    -0.180000       12.0110           0
      3904 MEMB     50       CHL1     H23A     HAL2     0.900000E-01   1.00800           0
      3905 MEMB     50       CHL1     H23B     HAL2     0.900000E-01   1.00800           0
      3906 MEMB     50       CHL1     C24      CTL2    -0.180000       12.0110           0
      3907 MEMB     50       CHL1     H24A     HAL2     0.900000E-01   1.00800           0
      3908 MEMB     50       CHL1     H24B     HAL2     0.900000E-01   1.00800           0
      3909 MEMB     50       CHL1     C25      CTL1    -0.900000E-01   12.0110           0
      3910 MEMB     50       CHL1     H25      HAL1     0.900000E-01   1.00800           0
      3911 MEMB     50       CHL1     C26      CTL3    -0.270000       12.0110           0
      3912 MEMB     50       CHL1     H26A     HAL3     0.900000E-01   1.00800           0
      3913 MEMB     50       CHL1     H26B     HAL3     0.900000E-01   1.00800           0
      3914 MEMB     50       CHL1     H26C     HAL3     0.900000E-01   1.00800           0
      3915 MEMB     50       CHL1     C27      CTL3    -0.270000       12.0110           0
      3916 MEMB     50       CHL1     H27A     HAL3     0.900000E-01   1.00800           0
      3917 MEMB     50       CHL1     H27B     HAL3     0.900000E-01   1.00800           0
      3918 MEMB     50       CHL1     H27C     HAL3     0.900000E-01   1.00800           0
      3919 MEMB     52       CHL1     C3       CRL1     0.140000       12.0110           0
      3920 MEMB     52       CHL1     H3       HGA1     0.900000E-01   1.00800           0
      3921 MEMB     52       CHL1     O3       OHL     -0.660000       15.9994           0
      3922 MEMB     52       CHL1     H3'      HOL      0.430000       1.00800           0
      3923 MEMB     52       CHL1     C4       CRL2    -0.180000       12.0110           0
      3924 MEMB     52       CHL1     H4A      HGA2     0.900000E-01   1.00800           0
      3925 MEMB     52       CHL1     H4B      HGA2     0.900000E-01   1.00800           0
      3926 MEMB     52       CHL1     C5       CEL1     0.000000       12.0110           0
      3927 MEMB     52       CHL1     C6       CEL1    -0.150000       12.0110           0
      3928 MEMB     52       CHL1     H6       HEL1     0.150000       1.00800           0
      3929 MEMB     52       CHL1     C7       CRL2    -0.180000       12.0110           0
      3930 MEMB     52       CHL1     H7A      HGA2     0.900000E-01   1.00800           0
      3931 MEMB     52       CHL1     H7B      HGA2     0.900000E-01   1.00800           0
      3932 MEMB     52       CHL1     C8       CRL1    -0.900000E-01   12.0110           0
      3933 MEMB     52       CHL1     H8       HGA1     0.900000E-01   1.00800           0
      3934 MEMB     52       CHL1     C14      CRL1    -0.900000E-01   12.0110           0
      3935 MEMB     52       CHL1     H14      HGA1     0.900000E-01   1.00800           0
      3936 MEMB     52       CHL1     C15      CRL2    -0.180000       12.0110           0
      3937 MEMB     52       CHL1     H15A     HGA2     0.900000E-01   1.00800           0
      3938 MEMB     52       CHL1     H15B     HGA2     0.900000E-01   1.00800           0
      3939 MEMB     52       CHL1     C16      CRL2    -0.180000       12.0110           0
      3940 MEMB     52       CHL1     H16A     HGA2     0.900000E-01   1.00800           0
      3941 MEMB     52       CHL1     H16B     HGA2     0.900000E-01   1.00800           0
      3942 MEMB     52       CHL1     C17      CRL1    -0.900000E-01   12.0110           0
      3943 MEMB     52       CHL1     H17      HGA1     0.900000E-01   1.00800           0
      3944 MEMB     52       CHL1     C13      CRL1     0.000000       12.0110           0
      3945 MEMB     52       CHL1     C18      CTL3    -0.270000       12.0110           0
      3946 MEMB     52       CHL1     H18A     HAL3     0.900000E-01   1.00800           0
      3947 MEMB     52       CHL1     H18B     HAL3     0.900000E-01   1.00800           0
      3948 MEMB     52       CHL1     H18C     HAL3     0.900000E-01   1.00800           0
      3949 MEMB     52       CHL1     C12      CRL2    -0.180000       12.0110           0
      3950 MEMB     52       CHL1     H12A     HGA2     0.900000E-01   1.00800           0
      3951 MEMB     52       CHL1     H12B     HGA2     0.900000E-01   1.00800           0
      3952 MEMB     52       CHL1     C11      CRL2    -0.180000       12.0110           0
      3953 MEMB     52       CHL1     H11A     HGA2     0.900000E-01   1.00800           0
      3954 MEMB     52       CHL1     H11B     HGA2     0.900000E-01   1.00800           0
      3955 MEMB     52       CHL1     C9       CRL1    -0.900000E-01   12.0110           0
      3956 MEMB     52       CHL1     H9       HGA1     0.900000E-01   1.00800           0
      3957 MEMB     52       CHL1     C10      CRL1     0.000000       12.0110           0
      3958 MEMB     52       CHL1     C19      CTL3    -0.270000       12.0110           0
      3959 MEMB     52       CHL1     H19A     HAL3     0.900000E-01   1.00800           0
      3960 MEMB     52       CHL1     H19B     HAL3     0.900000E-01   1.00800           0
      3961 MEMB     52       CHL1     H19C     HAL3     0.900000E-01   1.00800           0
      3962 MEMB     52       CHL1     C1       CRL2    -0.180000       12.0110           0
      3963 MEMB     52       CHL1     H1A      HGA2     0.900000E-01   1.00800           0
      3964 MEMB     52       CHL1     H1B      HGA2     0.900000E-01   1.00800           0
      3965 MEMB     52       CHL1     C2       CRL2    -0.180000       12.0110           0
      3966 MEMB     52       CHL1     H2A      HGA2     0.900000E-01   1.00800           0
      3967 MEMB     52       CHL1     H2B      HGA2     0.900000E-01   1.00800           0
      3968 MEMB     52       CHL1     C20      CTL1    -0.900000E-01   12.0110           0
      3969 MEMB     52       CHL1     H20      HAL1     0.900000E-01   1.00800           0
      3970 MEMB     52       CHL1     C21      CTL3    -0.270000       12.0110           0
      3971 MEMB     52       CHL1     H21A     HAL3     0.900000E-01   1.00800           0
      3972 MEMB     52       CHL1     H21B     HAL3     0.900000E-01   1.00800           0
      3973 MEMB     52       CHL1     H21C     HAL3     0.900000E-01   1.00800           0
      3974 MEMB     52       CHL1     C22      CTL2    -0.180000       12.0110           0
      3975 MEMB     52       CHL1     H22A     HAL2     0.900000E-01   1.00800           0
      3976 MEMB     52       CHL1     H22B     HAL2     0.900000E-01   1.00800           0
      3977 MEMB     52       CHL1     C23      CTL2    -0.180000       12.0110           0
      3978 MEMB     52       CHL1     H23A     HAL2     0.900000E-01   1.00800           0
      3979 MEMB     52       CHL1     H23B     HAL2     0.900000E-01   1.00800           0
      3980 MEMB     52       CHL1     C24      CTL2    -0.180000       12.0110           0
      3981 MEMB     52       CHL1     H24A     HAL2     0.900000E-01   1.00800           0
      3982 MEMB     52       CHL1     H24B     HAL2     0.900000E-01   1.00800           0
      3983 MEMB     52       CHL1     C25      CTL1    -0.900000E-01   12.0110           0
      3984 MEMB     52       CHL1     H25      HAL1     0.900000E-01   1.00800           0
      3985 MEMB     52       CHL1     C26      CTL3    -0.270000       12.0110           0
      3986 MEMB     52       CHL1     H26A     HAL3     0.900000E-01   1.00800           0
      3987 MEMB     52       CHL1     H26B     HAL3     0.900000E-01   1.00800           0
      3988 MEMB     52       CHL1     H26C     HAL3     0.900000E-01   1.00800           0
      3989 MEMB     52       CHL1     C27      CTL3    -0.270000       12.0110           0
      3990 MEMB     52       CHL1     H27A     HAL3     0.900000E-01   1.00800           0
      3991 MEMB     52       CHL1     H27B     HAL3     0.900000E-01   1.00800           0
      3992 MEMB     52       CHL1     H27C     HAL3     0.900000E-01   1.00800           0
      3993 MEMB     59       CHL1     C3       CRL1     0.140000       12.0110           0
      3994 MEMB     59       CHL1     H3       HGA1     0.900000E-01   1.00800           0
      3995 MEMB     59       CHL1     O3       OHL     -0.660000       15.9994           0
      3996 MEMB     59       CHL1     H3'      HOL      0.430000       1.00800           0
      3997 MEMB     59       CHL1     C4       CRL2    -0.180000       12.0110           0
      3998 MEMB     59       CHL1     H4A      HGA2     0.900000E-01   1.00800           0
      3999 MEMB     59       CHL1     H4B      HGA2     0.900000E-01   1.00800           0
      4000 MEMB     59       CHL1     C5       CEL1     0.000000       12.0110           0
      4001 MEMB     59       CHL1     C6       CEL1    -0.150000       12.0110           0
      4002 MEMB     59       CHL1     H6       HEL1     0.150000       1.00800           0
      4003 MEMB     59       CHL1     C7       CRL2    -0.180000       12.0110           0
      4004 MEMB     59       CHL1     H7A      HGA2     0.900000E-01   1.00800           0
      4005 MEMB     59       CHL1     H7B      HGA2     0.900000E-01   1.00800           0
      4006 MEMB     59       CHL1     C8       CRL1    -0.900000E-01   12.0110           0
      4007 MEMB     59       CHL1     H8       HGA1     0.900000E-01   1.00800           0
      4008 MEMB     59       CHL1     C14      CRL1    -0.900000E-01   12.0110           0
      4009 MEMB     59       CHL1     H14      HGA1     0.900000E-01   1.00800           0
      4010 MEMB     59       CHL1     C15      CRL2    -0.180000       12.0110           0
      4011 MEMB     59       CHL1     H15A     HGA2     0.900000E-01   1.00800           0
      4012 MEMB     59       CHL1     H15B     HGA2     0.900000E-01   1.00800           0
      4013 MEMB     59       CHL1     C16      CRL2    -0.180000       12.0110           0
      4014 MEMB     59       CHL1     H16A     HGA2     0.900000E-01   1.00800           0
      4015 MEMB     59       CHL1     H16B     HGA2     0.900000E-01   1.00800           0
      4016 MEMB     59       CHL1     C17      CRL1    -0.900000E-01   12.0110           0
      4017 MEMB     59       CHL1     H17      HGA1     0.900000E-01   1.00800           0
      4018 MEMB     59       CHL1     C13      CRL1     0.000000       12.0110           0
      4019 MEMB     59       CHL1     C18      CTL3    -0.270000       12.0110           0
      4020 MEMB     59       CHL1     H18A     HAL3     0.900000E-01   1.00800           0
      4021 MEMB     59       CHL1     H18B     HAL3     0.900000E-01   1.00800           0
      4022 MEMB     59       CHL1     H18C     HAL3     0.900000E-01   1.00800           0
      4023 MEMB     59       CHL1     C12      CRL2    -0.180000       12.0110           0
      4024 MEMB     59       CHL1     H12A     HGA2     0.900000E-01   1.00800           0
      4025 MEMB     59       CHL1     H12B     HGA2     0.900000E-01   1.00800           0
      4026 MEMB     59       CHL1     C11      CRL2    -0.180000       12.0110           0
      4027 MEMB     59       CHL1     H11A     HGA2     0.900000E-01   1.00800           0
      4028 MEMB     59       CHL1     H11B     HGA2     0.900000E-01   1.00800           0
      4029 MEMB     59       CHL1     C9       CRL1    -0.900000E-01   12.0110           0
      4030 MEMB     59       CHL1     H9       HGA1     0.900000E-01   1.00800           0
      4031 MEMB     59       CHL1     C10      CRL1     0.000000       12.0110           0
      4032 MEMB     59       CHL1     C19      CTL3    -0.270000       12.0110           0
      4033 MEMB     59       CHL1     H19A     HAL3     0.900000E-01   1.00800           0
      4034 MEMB     59       CHL1     H19B     HAL3     0.900000E-01   1.00800           0
      4035 MEMB     59       CHL1     H19C     HAL3     0.900000E-01   1.00800           0
      4036 MEMB     59       CHL1     C1       CRL2    -0.180000       12.0110           0
      4037 MEMB     59       CHL1     H1A      HGA2     0.900000E-01   1.00800           0
      4038 MEMB     59       CHL1     H1B      HGA2     0.900000E-01   1.00800           0
      4039 MEMB     59       CHL1     C2       CRL2    -0.180000       12.0110           0
      4040 MEMB     59       CHL1     H2A      HGA2     0.900000E-01   1.00800           0
      4041 MEMB     59       CHL1     H2B      HGA2     0.900000E-01   1.00800           0
      4042 MEMB     59       CHL1     C20      CTL1    -0.900000E-01   12.0110           0
      4043 MEMB     59       CHL1     H20      HAL1     0.900000E-01   1.00800           0
      4044 MEMB     59       CHL1     C21      CTL3    -0.270000       12.0110           0
      4045 MEMB     59       CHL1     H21A     HAL3     0.900000E-01   1.00800           0
      4046 MEMB     59       CHL1     H21B     HAL3     0.900000E-01   1.00800           0
      4047 MEMB     59       CHL1     H21C     HAL3     0.900000E-01   1.00800           0
      4048 MEMB     59       CHL1     C22      CTL2    -0.180000       12.0110           0
      4049 MEMB     59       CHL1     H22A     HAL2     0.900000E-01   1.00800           0
      4050 MEMB     59       CHL1     H22B     HAL2     0.900000E-01   1.00800           0
      4051 MEMB     59       CHL1     C23      CTL2    -0.180000       12.0110           0
      4052 MEMB     59       CHL1     H23A     HAL2     0.900000E-01   1.00800           0
      4053 MEMB     59       CHL1     H23B     HAL2     0.900000E-01   1.00800           0
      4054 MEMB     59       CHL1     C24      CTL2    -0.180000       12.0110           0
      4055 MEMB     59       CHL1     H24A     HAL2     0.900000E-01   1.00800           0
      4056 MEMB     59       CHL1     H24B     HAL2     0.900000E-01   1.00800           0
      4057 MEMB     59       CHL1     C25      CTL1    -0.900000E-01   12.0110           0
      4058 MEMB     59       CHL1     H25      HAL1     0.900000E-01   1.00800           0
      4059 MEMB     59       CHL1     C26      CTL3    -0.270000       12.0110           0
      4060 MEMB     59       CHL1     H26A     HAL3     0.900000E-01   1.00800           0
      4061 MEMB     59       CHL1     H26B     HAL3     0.900000E-01   1.00800           0
      4062 MEMB     59       CHL1     H26C     HAL3     0.900000E-01   1.00800           0
      4063 MEMB     59       CHL1     C27      CTL3    -0.270000       12.0110           0
      4064 MEMB     59       CHL1     H27A     HAL3     0.900000E-01   1.00800           0
      4065 MEMB     59       CHL1     H27B     HAL3     0.900000E-01   1.00800           0
      4066 MEMB     59       CHL1     H27C     HAL3     0.900000E-01   1.00800           0
      4067 MEMB     60       CHL1     C3       CRL1     0.140000       12.0110           0
      4068 MEMB     60       CHL1     H3       HGA1     0.900000E-01   1.00800           0
      4069 MEMB     60       CHL1     O3       OHL     -0.660000       15.9994           0
      4070 MEMB     60       CHL1     H3'      HOL      0.430000       1.00800           0
      4071 MEMB     60       CHL1     C4       CRL2    -0.180000       12.0110           0
      4072 MEMB     60       CHL1     H4A      HGA2     0.900000E-01   1.00800           0
      4073 MEMB     60       CHL1     H4B      HGA2     0.900000E-01   1.00800           0
      4074 MEMB     60       CHL1     C5       CEL1     0.000000       12.0110           0
      4075 MEMB     60       CHL1     C6       CEL1    -0.150000       12.0110           0
      4076 MEMB     60       CHL1     H6       HEL1     0.150000       1.00800           0
      4077 MEMB     60       CHL1     C7       CRL2    -0.180000       12.0110           0
      4078 MEMB     60       CHL1     H7A      HGA2     0.900000E-01   1.00800           0
      4079 MEMB     60       CHL1     H7B      HGA2     0.900000E-01   1.00800           0
      4080 MEMB     60       CHL1     C8       CRL1    -0.900000E-01   12.0110           0
      4081 MEMB     60       CHL1     H8       HGA1     0.900000E-01   1.00800           0
      4082 MEMB     60       CHL1     C14      CRL1    -0.900000E-01   12.0110           0
      4083 MEMB     60       CHL1     H14      HGA1     0.900000E-01   1.00800           0
      4084 MEMB     60       CHL1     C15      CRL2    -0.180000       12.0110           0
      4085 MEMB     60       CHL1     H15A     HGA2     0.900000E-01   1.00800           0
      4086 MEMB     60       CHL1     H15B     HGA2     0.900000E-01   1.00800           0
      4087 MEMB     60       CHL1     C16      CRL2    -0.180000       12.0110           0
      4088 MEMB     60       CHL1     H16A     HGA2     0.900000E-01   1.00800           0
      4089 MEMB     60       CHL1     H16B     HGA2     0.900000E-01   1.00800           0
      4090 MEMB     60       CHL1     C17      CRL1    -0.900000E-01   12.0110           0
      4091 MEMB     60       CHL1     H17      HGA1     0.900000E-01   1.00800           0
      4092 MEMB     60       CHL1     C13      CRL1     0.000000       12.0110           0
      4093 MEMB     60       CHL1     C18      CTL3    -0.270000       12.0110           0
      4094 MEMB     60       CHL1     H18A     HAL3     0.900000E-01   1.00800           0
      4095 MEMB     60       CHL1     H18B     HAL3     0.900000E-01   1.00800           0
      4096 MEMB     60       CHL1     H18C     HAL3     0.900000E-01   1.00800           0
      4097 MEMB     60       CHL1     C12      CRL2    -0.180000       12.0110           0
      4098 MEMB     60       CHL1     H12A     HGA2     0.900000E-01   1.00800           0
      4099 MEMB     60       CHL1     H12B     HGA2     0.900000E-01   1.00800           0
      4100 MEMB     60       CHL1     C11      CRL2    -0.180000       12.0110           0
      4101 MEMB     60       CHL1     H11A     HGA2     0.900000E-01   1.00800           0
      4102 MEMB     60       CHL1     H11B     HGA2     0.900000E-01   1.00800           0
      4103 MEMB     60       CHL1     C9       CRL1    -0.900000E-01   12.0110           0
      4104 MEMB     60       CHL1     H9       HGA1     0.900000E-01   1.00800           0
      4105 MEMB     60       CHL1     C10      CRL1     0.000000       12.0110           0
      4106 MEMB     60       CHL1     C19      CTL3    -0.270000       12.0110           0
      4107 MEMB     60       CHL1     H19A     HAL3     0.900000E-01   1.00800           0
      4108 MEMB     60       CHL1     H19B     HAL3     0.900000E-01   1.00800           0
      4109 MEMB     60       CHL1     H19C     HAL3     0.900000E-01   1.00800           0
      4110 MEMB     60       CHL1     C1       CRL2    -0.180000       12.0110           0
      4111 MEMB     60       CHL1     H1A      HGA2     0.900000E-01   1.00800           0
      4112 MEMB     60       CHL1     H1B      HGA2     0.900000E-01   1.00800           0
      4113 MEMB     60       CHL1     C2       CRL2    -0.180000       12.0110           0
      4114 MEMB     60       CHL1     H2A      HGA2     0.900000E-01   1.00800           0
      4115 MEMB     60       CHL1     H2B      HGA2     0.900000E-01   1.00800           0
      4116 MEMB     60       CHL1     C20      CTL1    -0.900000E-01   12.0110           0
      4117 MEMB     60       CHL1     H20      HAL1     0.900000E-01   1.00800           0
      4118 MEMB     60       CHL1     C21      CTL3    -0.270000       12.0110           0
      4119 MEMB     60       CHL1     H21A     HAL3     0.900000E-01   1.00800           0
      4120 MEMB     60       CHL1     H21B     HAL3     0.900000E-01   1.00800           0
      4121 MEMB     60       CHL1     H21C     HAL3     0.900000E-01   1.00800           0
      4122 MEMB     60       CHL1     C22      CTL2    -0.180000       12.0110           0
      4123 MEMB     60       CHL1     H22A     HAL2     0.900000E-01   1.00800           0
      4124 MEMB     60       CHL1     H22B     HAL2     0.900000E-01   1.00800           0
      4125 MEMB     60       CHL1     C23      CTL2    -0.180000       12.0110           0
      4126 MEMB     60       CHL1     H23A     HAL2     0.900000E-01   1.00800           0
      4127 MEMB     60       CHL1     H23B     HAL2     0.900000E-01   1.00800           0
      4128 MEMB     60       CHL1     C24      CTL2    -0.180000       12.0110           0
      4129 MEMB     60       CHL1     H24A     HAL2     0.900000E-01   1.00800           0
      4130 MEMB     60       CHL1     H24B     HAL2     0.900000E-01   1.00800           0
      4131 MEMB     60       CHL1     C25      CTL1    -0.900000E-01   12.0110           0
      4132 MEMB     60       CHL1     H25      HAL1     0.900000E-01   1.00800           0
      4133 MEMB     60       CHL1     C26      CTL3    -0.270000       12.0110           0
      4134 MEMB     60       CHL1     H26A     HAL3     0.900000E-01   1.00800           0
      4135 MEMB     60       CHL1     H26B     HAL3     0.900000E-01   1.00800           0
      4136 MEMB     60       CHL1     H26C     HAL3     0.900000E-01   1.00800           0
      4137 MEMB     60       CHL1     C27      CTL3    -0.270000       12.0110           0
      4138 MEMB     60       CHL1     H27A     HAL3     0.900000E-01   1.00800           0
      4139 MEMB     60       CHL1     H27B     HAL3     0.900000E-01   1.00800           0
      4140 MEMB     60       CHL1     H27C     HAL3     0.900000E-01   1.00800           0
      4141 MEMB     61       CHL1     C3       CRL1     0.140000       12.0110           0
      4142 MEMB     61       CHL1     H3       HGA1     0.900000E-01   1.00800           0
      4143 MEMB     61       CHL1     O3       OHL     -0.660000       15.9994           0
      4144 MEMB     61       CHL1     H3'      HOL      0.430000       1.00800           0
      4145 MEMB     61       CHL1     C4       CRL2    -0.180000       12.0110           0
      4146 MEMB     61       CHL1     H4A      HGA2     0.900000E-01   1.00800           0
      4147 MEMB     61       CHL1     H4B      HGA2     0.900000E-01   1.00800           0
      4148 MEMB     61       CHL1     C5       CEL1     0.000000       12.0110           0
      4149 MEMB     61       CHL1     C6       CEL1    -0.150000       12.0110           0
      4150 MEMB     61       CHL1     H6       HEL1     0.150000       1.00800           0
      4151 MEMB     61       CHL1     C7       CRL2    -0.180000       12.0110           0
      4152 MEMB     61       CHL1     H7A      HGA2     0.900000E-01   1.00800           0
      4153 MEMB     61       CHL1     H7B      HGA2     0.900000E-01   1.00800           0
      4154 MEMB     61       CHL1     C8       CRL1    -0.900000E-01   12.0110           0
      4155 MEMB     61       CHL1     H8       HGA1     0.900000E-01   1.00800           0
      4156 MEMB     61       CHL1     C14      CRL1    -0.900000E-01   12.0110           0
      4157 MEMB     61       CHL1     H14      HGA1     0.900000E-01   1.00800           0
      4158 MEMB     61       CHL1     C15      CRL2    -0.180000       12.0110           0
      4159 MEMB     61       CHL1     H15A     HGA2     0.900000E-01   1.00800           0
      4160 MEMB     61       CHL1     H15B     HGA2     0.900000E-01   1.00800           0
      4161 MEMB     61       CHL1     C16      CRL2    -0.180000       12.0110           0
      4162 MEMB     61       CHL1     H16A     HGA2     0.900000E-01   1.00800           0
      4163 MEMB     61       CHL1     H16B     HGA2     0.900000E-01   1.00800           0
      4164 MEMB     61       CHL1     C17      CRL1    -0.900000E-01   12.0110           0
      4165 MEMB     61       CHL1     H17      HGA1     0.900000E-01   1.00800           0
      4166 MEMB     61       CHL1     C13      CRL1     0.000000       12.0110           0
      4167 MEMB     61       CHL1     C18      CTL3    -0.270000       12.0110           0
      4168 MEMB     61       CHL1     H18A     HAL3     0.900000E-01   1.00800           0
      4169 MEMB     61       CHL1     H18B     HAL3     0.900000E-01   1.00800           0
      4170 MEMB     61       CHL1     H18C     HAL3     0.900000E-01   1.00800           0
      4171 MEMB     61       CHL1     C12      CRL2    -0.180000       12.0110           0
      4172 MEMB     61       CHL1     H12A     HGA2     0.900000E-01   1.00800           0
      4173 MEMB     61       CHL1     H12B     HGA2     0.900000E-01   1.00800           0
      4174 MEMB     61       CHL1     C11      CRL2    -0.180000       12.0110           0
      4175 MEMB     61       CHL1     H11A     HGA2     0.900000E-01   1.00800           0
      4176 MEMB     61       CHL1     H11B     HGA2     0.900000E-01   1.00800           0
      4177 MEMB     61       CHL1     C9       CRL1    -0.900000E-01   12.0110           0
      4178 MEMB     61       CHL1     H9       HGA1     0.900000E-01   1.00800           0
      4179 MEMB     61       CHL1     C10      CRL1     0.000000       12.0110           0
      4180 MEMB     61       CHL1     C19      CTL3    -0.270000       12.0110           0
      4181 MEMB     61       CHL1     H19A     HAL3     0.900000E-01   1.00800           0
      4182 MEMB     61       CHL1     H19B     HAL3     0.900000E-01   1.00800           0
      4183 MEMB     61       CHL1     H19C     HAL3     0.900000E-01   1.00800           0
      4184 MEMB     61       CHL1     C1       CRL2    -0.180000       12.0110           0
      4185 MEMB     61       CHL1     H1A      HGA2     0.900000E-01   1.00800           0
      4186 MEMB     61       CHL1     H1B      HGA2     0.900000E-01   1.00800           0
      4187 MEMB     61       CHL1     C2       CRL2    -0.180000       12.0110           0
      4188 MEMB     61       CHL1     H2A      HGA2     0.900000E-01   1.00800           0
      4189 MEMB     61       CHL1     H2B      HGA2     0.900000E-01   1.00800           0
      4190 MEMB     61       CHL1     C20      CTL1    -0.900000E-01   12.0110           0
      4191 MEMB     61       CHL1     H20      HAL1     0.900000E-01   1.00800           0
      4192 MEMB     61       CHL1     C21      CTL3    -0.270000       12.0110           0
      4193 MEMB     61       CHL1     H21A     HAL3     0.900000E-01   1.00800           0
      4194 MEMB     61       CHL1     H21B     HAL3     0.900000E-01   1.00800           0
      4195 MEMB     61       CHL1     H21C     HAL3     0.900000E-01   1.00800           0
      4196 MEMB     61       CHL1     C22      CTL2    -0.180000       12.0110           0
      4197 MEMB     61       CHL1     H22A     HAL2     0.900000E-01   1.00800           0
      4198 MEMB     61       CHL1     H22B     HAL2     0.900000E-01   1.00800           0
      4199 MEMB     61       CHL1     C23      CTL2    -0.180000       12.0110           0
      4200 MEMB     61       CHL1     H23A     HAL2     0.900000E-01   1.00800           0
      4201 MEMB     61       CHL1     H23B     HAL2     0.900000E-01   1.00800           0
      4202 MEMB     61       CHL1     C24      CTL2    -0.180000       12.0110           0
      4203 MEMB     61       CHL1     H24A     HAL2     0.900000E-01   1.00800           0
      4204 MEMB     61       CHL1     H24B     HAL2     0.900000E-01   1.00800           0
      4205 MEMB     61       CHL1     C25      CTL1    -0.900000E-01   12.0110           0
      4206 MEMB     61       CHL1     H25      HAL1     0.900000E-01   1.00800           0
      4207 MEMB     61       CHL1     C26      CTL3    -0.270000       12.0110           0
      4208 MEMB     61       CHL1     H26A     HAL3     0.900000E-01   1.00800           0
      4209 MEMB     61       CHL1     H26B     HAL3     0.900000E-01   1.00800           0
      4210 MEMB     61       CHL1     H26C     HAL3     0.900000E-01   1.00800           0
      4211 MEMB     61       CHL1     C27      CTL3    -0.270000       12.0110           0
      4212 MEMB     61       CHL1     H27A     HAL3     0.900000E-01   1.00800           0
      4213 MEMB     61       CHL1     H27B     HAL3     0.900000E-01   1.00800           0
      4214 MEMB     61       CHL1     H27C     HAL3     0.900000E-01   1.00800           0
      4215 MEMB     62       CHL1     C3       CRL1     0.140000       12.0110           0
      4216 MEMB     62       CHL1     H3       HGA1     0.900000E-01   1.00800           0
      4217 MEMB     62       CHL1     O3       OHL     -0.660000       15.9994           0
      4218 MEMB     62       CHL1     H3'      HOL      0.430000       1.00800           0
      4219 MEMB     62       CHL1     C4       CRL2    -0.180000       12.0110           0
      4220 MEMB     62       CHL1     H4A      HGA2     0.900000E-01   1.00800           0
      4221 MEMB     62       CHL1     H4B      HGA2     0.900000E-01   1.00800           0
      4222 MEMB     62       CHL1     C5       CEL1     0.000000       12.0110           0
      4223 MEMB     62       CHL1     C6       CEL1    -0.150000       12.0110           0
      4224 MEMB     62       CHL1     H6       HEL1     0.150000       1.00800           0
      4225 MEMB     62       CHL1     C7       CRL2    -0.180000       12.0110           0
      4226 MEMB     62       CHL1     H7A      HGA2     0.900000E-01   1.00800           0
      4227 MEMB     62       CHL1     H7B      HGA2     0.900000E-01   1.00800           0
      4228 MEMB     62       CHL1     C8       CRL1    -0.900000E-01   12.0110           0
      4229 MEMB     62       CHL1     H8       HGA1     0.900000E-01   1.00800           0
      4230 MEMB     62       CHL1     C14      CRL1    -0.900000E-01   12.0110           0
      4231 MEMB     62       CHL1     H14      HGA1     0.900000E-01   1.00800           0
      4232 MEMB     62       CHL1     C15      CRL2    -0.180000       12.0110           0
      4233 MEMB     62       CHL1     H15A     HGA2     0.900000E-01   1.00800           0
      4234 MEMB     62       CHL1     H15B     HGA2     0.900000E-01   1.00800           0
      4235 MEMB     62       CHL1     C16      CRL2    -0.180000       12.0110           0
      4236 MEMB     62       CHL1     H16A     HGA2     0.900000E-01   1.00800           0
      4237 MEMB     62       CHL1     H16B     HGA2     0.900000E-01   1.00800           0
      4238 MEMB     62       CHL1     C17      CRL1    -0.900000E-01   12.0110           0
      4239 MEMB     62       CHL1     H17      HGA1     0.900000E-01   1.00800           0
      4240 MEMB     62       CHL1     C13      CRL1     0.000000       12.0110           0
      4241 MEMB     62       CHL1     C18      CTL3    -0.270000       12.0110           0
      4242 MEMB     62       CHL1     H18A     HAL3     0.900000E-01   1.00800           0
      4243 MEMB     62       CHL1     H18B     HAL3     0.900000E-01   1.00800           0
      4244 MEMB     62       CHL1     H18C     HAL3     0.900000E-01   1.00800           0
      4245 MEMB     62       CHL1     C12      CRL2    -0.180000       12.0110           0
      4246 MEMB     62       CHL1     H12A     HGA2     0.900000E-01   1.00800           0
      4247 MEMB     62       CHL1     H12B     HGA2     0.900000E-01   1.00800           0
      4248 MEMB     62       CHL1     C11      CRL2    -0.180000       12.0110           0
      4249 MEMB     62       CHL1     H11A     HGA2     0.900000E-01   1.00800           0
      4250 MEMB     62       CHL1     H11B     HGA2     0.900000E-01   1.00800           0
      4251 MEMB     62       CHL1     C9       CRL1    -0.900000E-01   12.0110           0
      4252 MEMB     62       CHL1     H9       HGA1     0.900000E-01   1.00800           0
      4253 MEMB     62       CHL1     C10      CRL1     0.000000       12.0110           0
      4254 MEMB     62       CHL1     C19      CTL3    -0.270000       12.0110           0
      4255 MEMB     62       CHL1     H19A     HAL3     0.900000E-01   1.00800           0
      4256 MEMB     62       CHL1     H19B     HAL3     0.900000E-01   1.00800           0
      4257 MEMB     62       CHL1     H19C     HAL3     0.900000E-01   1.00800           0
      4258 MEMB     62       CHL1     C1       CRL2    -0.180000       12.0110           0
      4259 MEMB     62       CHL1     H1A      HGA2     0.900000E-01   1.00800           0
      4260 MEMB     62       CHL1     H1B      HGA2     0.900000E-01   1.00800           0
      4261 MEMB     62       CHL1     C2       CRL2    -0.180000       12.0110           0
      4262 MEMB     62       CHL1     H2A      HGA2     0.900000E-01   1.00800           0
      4263 MEMB     62       CHL1     H2B      HGA2     0.900000E-01   1.00800           0
      4264 MEMB     62       CHL1     C20      CTL1    -0.900000E-01   12.0110           0
      4265 MEMB     62       CHL1     H20      HAL1     0.900000E-01   1.00800           0
      4266 MEMB     62       CHL1     C21      CTL3    -0.270000       12.0110           0
      4267 MEMB     62       CHL1     H21A     HAL3     0.900000E-01   1.00800           0
      4268 MEMB     62       CHL1     H21B     HAL3     0.900000E-01   1.00800           0
      4269 MEMB     62       CHL1     H21C     HAL3     0.900000E-01   1.00800           0
      4270 MEMB     62       CHL1     C22      CTL2    -0.180000       12.0110           0
      4271 MEMB     62       CHL1     H22A     HAL2     0.900000E-01   1.00800           0
      4272 MEMB     62       CHL1     H22B     HAL2     0.900000E-01   1.00800           0
      4273 MEMB     62       CHL1     C23      CTL2    -0.180000       12.0110           0
      4274 MEMB     62       CHL1     H23A     HAL2     0.900000E-01   1.00800           0
      4275 MEMB     62       CHL1     H23B     HAL2     0.900000E-01   1.00800           0
      4276 MEMB     62       CHL1     C24      CTL2    -0.180000       12.0110           0
      4277 MEMB     62       CHL1     H24A     HAL2     0.900000E-01   1.00800           0
      4278 MEMB     62       CHL1     H24B     HAL2     0.900000E-01   1.00800           0
      4279 MEMB     62       CHL1     C25      CTL1    -0.900000E-01   12.0110           0
      4280 MEMB     62       CHL1     H25      HAL1     0.900000E-01   1.00800           0
      4281 MEMB     62       CHL1     C26      CTL3    -0.270000       12.0110           0
      4282 MEMB     62       CHL1     H26A     HAL3     0.900000E-01   1.00800           0
      4283 MEMB     62       CHL1     H26B     HAL3     0.900000E-01   1.00800           0
      4284 MEMB     62       CHL1     H26C     HAL3     0.900000E-01   1.00800           0
      4285 MEMB     62       CHL1     C27      CTL3    -0.270000       12.0110           0
      4286 MEMB     62       CHL1     H27A     HAL3     0.900000E-01   1.00800           0
      4287 MEMB     62       CHL1     H27B     HAL3     0.900000E-01   1.00800           0
      4288 MEMB     62       CHL1     H27C     HAL3     0.900000E-01   1.00800           0
      4289 MEMB     64       CHL1     C3       CRL1     0.140000       12.0110           0
      4290 MEMB     64       CHL1     H3       HGA1     0.900000E-01   1.00800           0
      4291 MEMB     64       CHL1     O3       OHL     -0.660000       15.9994           0
      4292 MEMB     64       CHL1     H3'      HOL      0.430000       1.00800           0
      4293 MEMB     64       CHL1     C4       CRL2    -0.180000       12.0110           0
      4294 MEMB     64       CHL1     H4A      HGA2     0.900000E-01   1.00800           0
      4295 MEMB     64       CHL1     H4B      HGA2     0.900000E-01   1.00800           0
      4296 MEMB     64       CHL1     C5       CEL1     0.000000       12.0110           0
      4297 MEMB     64       CHL1     C6       CEL1    -0.150000       12.0110           0
      4298 MEMB     64       CHL1     H6       HEL1     0.150000       1.00800           0
      4299 MEMB     64       CHL1     C7       CRL2    -0.180000       12.0110           0
      4300 MEMB     64       CHL1     H7A      HGA2     0.900000E-01   1.00800           0
      4301 MEMB     64       CHL1     H7B      HGA2     0.900000E-01   1.00800           0
      4302 MEMB     64       CHL1     C8       CRL1    -0.900000E-01   12.0110           0
      4303 MEMB     64       CHL1     H8       HGA1     0.900000E-01   1.00800           0
      4304 MEMB     64       CHL1     C14      CRL1    -0.900000E-01   12.0110           0
      4305 MEMB     64       CHL1     H14      HGA1     0.900000E-01   1.00800           0
      4306 MEMB     64       CHL1     C15      CRL2    -0.180000       12.0110           0
      4307 MEMB     64       CHL1     H15A     HGA2     0.900000E-01   1.00800           0
      4308 MEMB     64       CHL1     H15B     HGA2     0.900000E-01   1.00800           0
      4309 MEMB     64       CHL1     C16      CRL2    -0.180000       12.0110           0
      4310 MEMB     64       CHL1     H16A     HGA2     0.900000E-01   1.00800           0
      4311 MEMB     64       CHL1     H16B     HGA2     0.900000E-01   1.00800           0
      4312 MEMB     64       CHL1     C17      CRL1    -0.900000E-01   12.0110           0
      4313 MEMB     64       CHL1     H17      HGA1     0.900000E-01   1.00800           0
      4314 MEMB     64       CHL1     C13      CRL1     0.000000       12.0110           0
      4315 MEMB     64       CHL1     C18      CTL3    -0.270000       12.0110           0
      4316 MEMB     64       CHL1     H18A     HAL3     0.900000E-01   1.00800           0
      4317 MEMB     64       CHL1     H18B     HAL3     0.900000E-01   1.00800           0
      4318 MEMB     64       CHL1     H18C     HAL3     0.900000E-01   1.00800           0
      4319 MEMB     64       CHL1     C12      CRL2    -0.180000       12.0110           0
      4320 MEMB     64       CHL1     H12A     HGA2     0.900000E-01   1.00800           0
      4321 MEMB     64       CHL1     H12B     HGA2     0.900000E-01   1.00800           0
      4322 MEMB     64       CHL1     C11      CRL2    -0.180000       12.0110           0
      4323 MEMB     64       CHL1     H11A     HGA2     0.900000E-01   1.00800           0
      4324 MEMB     64       CHL1     H11B     HGA2     0.900000E-01   1.00800           0
      4325 MEMB     64       CHL1     C9       CRL1    -0.900000E-01   12.0110           0
      4326 MEMB     64       CHL1     H9       HGA1     0.900000E-01   1.00800           0
      4327 MEMB     64       CHL1     C10      CRL1     0.000000       12.0110           0
      4328 MEMB     64       CHL1     C19      CTL3    -0.270000       12.0110           0
      4329 MEMB     64       CHL1     H19A     HAL3     0.900000E-01   1.00800           0
      4330 MEMB     64       CHL1     H19B     HAL3     0.900000E-01   1.00800           0
      4331 MEMB     64       CHL1     H19C     HAL3     0.900000E-01   1.00800           0
      4332 MEMB     64       CHL1     C1       CRL2    -0.180000       12.0110           0
      4333 MEMB     64       CHL1     H1A      HGA2     0.900000E-01   1.00800           0
      4334 MEMB     64       CHL1     H1B      HGA2     0.900000E-01   1.00800           0
      4335 MEMB     64       CHL1     C2       CRL2    -0.180000       12.0110           0
      4336 MEMB     64       CHL1     H2A      HGA2     0.900000E-01   1.00800           0
      4337 MEMB     64       CHL1     H2B      HGA2     0.900000E-01   1.00800           0
      4338 MEMB     64       CHL1     C20      CTL1    -0.900000E-01   12.0110           0
      4339 MEMB     64       CHL1     H20      HAL1     0.900000E-01   1.00800           0
      4340 MEMB     64       CHL1     C21      CTL3    -0.270000       12.0110           0
      4341 MEMB     64       CHL1     H21A     HAL3     0.900000E-01   1.00800           0
      4342 MEMB     64       CHL1     H21B     HAL3     0.900000E-01   1.00800           0
      4343 MEMB     64       CHL1     H21C     HAL3     0.900000E-01   1.00800           0
      4344 MEMB     64       CHL1     C22      CTL2    -0.180000       12.0110           0
      4345 MEMB     64       CHL1     H22A     HAL2     0.900000E-01   1.00800           0
      4346 MEMB     64       CHL1     H22B     HAL2     0.900000E-01   1.00800           0
      4347 MEMB     64       CHL1     C23      CTL2    -0.180000       12.0110           0
      4348 MEMB     64       CHL1     H23A     HAL2     0.900000E-01   1.00800           0
      4349 MEMB     64       CHL1     H23B     HAL2     0.900000E-01   1.00800           0
      4350 MEMB     64       CHL1     C24      CTL2    -0.180000       12.0110           0
      4351 MEMB     64       CHL1     H24A     HAL2     0.900000E-01   1.00800           0
      4352 MEMB     64       CHL1     H24B     HAL2     0.900000E-01   1.00800           0
      4353 MEMB     64       CHL1     C25      CTL1    -0.900000E-01   12.0110           0
      4354 MEMB     64       CHL1     H25      HAL1     0.900000E-01   1.00800           0
      4355 MEMB     64       CHL1     C26      CTL3    -0.270000       12.0110           0
      4356 MEMB     64       CHL1     H26A     HAL3     0.900000E-01   1.00800           0
      4357 MEMB     64       CHL1     H26B     HAL3     0.900000E-01   1.00800           0
      4358 MEMB     64       CHL1     H26C     HAL3     0.900000E-01   1.00800           0
      4359 MEMB     64       CHL1     C27      CTL3    -0.270000       12.0110           0
      4360 MEMB     64       CHL1     H27A     HAL3     0.900000E-01   1.00800           0
      4361 MEMB     64       CHL1     H27B     HAL3     0.900000E-01   1.00800           0
      4362 MEMB     64       CHL1     H27C     HAL3     0.900000E-01   1.00800           0
      4363 MEMB     76       CHL1     C3       CRL1     0.140000       12.0110           0
      4364 MEMB     76       CHL1     H3       HGA1     0.900000E-01   1.00800           0
      4365 MEMB     76       CHL1     O3       OHL     -0.660000       15.9994           0
      4366 MEMB     76       CHL1     H3'      HOL      0.430000       1.00800           0
      4367 MEMB     76       CHL1     C4       CRL2    -0.180000       12.0110           0
      4368 MEMB     76       CHL1     H4A      HGA2     0.900000E-01   1.00800           0
      4369 MEMB     76       CHL1     H4B      HGA2     0.900000E-01   1.00800           0
      4370 MEMB     76       CHL1     C5       CEL1     0.000000       12.0110           0
      4371 MEMB     76       CHL1     C6       CEL1    -0.150000       12.0110           0
      4372 MEMB     76       CHL1     H6       HEL1     0.150000       1.00800           0
      4373 MEMB     76       CHL1     C7       CRL2    -0.180000       12.0110           0
      4374 MEMB     76       CHL1     H7A      HGA2     0.900000E-01   1.00800           0
      4375 MEMB     76       CHL1     H7B      HGA2     0.900000E-01   1.00800           0
      4376 MEMB     76       CHL1     C8       CRL1    -0.900000E-01   12.0110           0
      4377 MEMB     76       CHL1     H8       HGA1     0.900000E-01   1.00800           0
      4378 MEMB     76       CHL1     C14      CRL1    -0.900000E-01   12.0110           0
      4379 MEMB     76       CHL1     H14      HGA1     0.900000E-01   1.00800           0
      4380 MEMB     76       CHL1     C15      CRL2    -0.180000       12.0110           0
      4381 MEMB     76       CHL1     H15A     HGA2     0.900000E-01   1.00800           0
      4382 MEMB     76       CHL1     H15B     HGA2     0.900000E-01   1.00800           0
      4383 MEMB     76       CHL1     C16      CRL2    -0.180000       12.0110           0
      4384 MEMB     76       CHL1     H16A     HGA2     0.900000E-01   1.00800           0
      4385 MEMB     76       CHL1     H16B     HGA2     0.900000E-01   1.00800           0
      4386 MEMB     76       CHL1     C17      CRL1    -0.900000E-01   12.0110           0
      4387 MEMB     76       CHL1     H17      HGA1     0.900000E-01   1.00800           0
      4388 MEMB     76       CHL1     C13      CRL1     0.000000       12.0110           0
      4389 MEMB     76       CHL1     C18      CTL3    -0.270000       12.0110           0
      4390 MEMB     76       CHL1     H18A     HAL3     0.900000E-01   1.00800           0
      4391 MEMB     76       CHL1     H18B     HAL3     0.900000E-01   1.00800           0
      4392 MEMB     76       CHL1     H18C     HAL3     0.900000E-01   1.00800           0
      4393 MEMB     76       CHL1     C12      CRL2    -0.180000       12.0110           0
      4394 MEMB     76       CHL1     H12A     HGA2     0.900000E-01   1.00800           0
      4395 MEMB     76       CHL1     H12B     HGA2     0.900000E-01   1.00800           0
      4396 MEMB     76       CHL1     C11      CRL2    -0.180000       12.0110           0
      4397 MEMB     76       CHL1     H11A     HGA2     0.900000E-01   1.00800           0
      4398 MEMB     76       CHL1     H11B     HGA2     0.900000E-01   1.00800           0
      4399 MEMB     76       CHL1     C9       CRL1    -0.900000E-01   12.0110           0
      4400 MEMB     76       CHL1     H9       HGA1     0.900000E-01   1.00800           0
      4401 MEMB     76       CHL1     C10      CRL1     0.000000       12.0110           0
      4402 MEMB     76       CHL1     C19      CTL3    -0.270000       12.0110           0
      4403 MEMB     76       CHL1     H19A     HAL3     0.900000E-01   1.00800           0
      4404 MEMB     76       CHL1     H19B     HAL3     0.900000E-01   1.00800           0
      4405 MEMB     76       CHL1     H19C     HAL3     0.900000E-01   1.00800           0
      4406 MEMB     76       CHL1     C1       CRL2    -0.180000       12.0110           0
      4407 MEMB     76       CHL1     H1A      HGA2     0.900000E-01   1.00800           0
      4408 MEMB     76       CHL1     H1B      HGA2     0.900000E-01   1.00800           0
      4409 MEMB     76       CHL1     C2       CRL2    -0.180000       12.0110           0
      4410 MEMB     76       CHL1     H2A      HGA2     0.900000E-01   1.00800           0
      4411 MEMB     76       CHL1     H2B      HGA2     0.900000E-01   1.00800           0
      4412 MEMB     76       CHL1     C20      CTL1    -0.900000E-01   12.0110           0
      4413 MEMB     76       CHL1     H20      HAL1     0.900000E-01   1.00800           0
      4414 MEMB     76       CHL1     C21      CTL3    -0.270000       12.0110           0
      4415 MEMB     76       CHL1     H21A     HAL3     0.900000E-01   1.00800           0
      4416 MEMB     76       CHL1     H21B     HAL3     0.900000E-01   1.00800           0
      4417 MEMB     76       CHL1     H21C     HAL3     0.900000E-01   1.00800           0
      4418 MEMB     76       CHL1     C22      CTL2    -0.180000       12.0110           0
      4419 MEMB     76       CHL1     H22A     HAL2     0.900000E-01   1.00800           0
      4420 MEMB     76       CHL1     H22B     HAL2     0.900000E-01   1.00800           0
      4421 MEMB     76       CHL1     C23      CTL2    -0.180000       12.0110           0
      4422 MEMB     76       CHL1     H23A     HAL2     0.900000E-01   1.00800           0
      4423 MEMB     76       CHL1     H23B     HAL2     0.900000E-01   1.00800           0
      4424 MEMB     76       CHL1     C24      CTL2    -0.180000       12.0110           0
      4425 MEMB     76       CHL1     H24A     HAL2     0.900000E-01   1.00800           0
      4426 MEMB     76       CHL1     H24B     HAL2     0.900000E-01   1.00800           0
      4427 MEMB     76       CHL1     C25      CTL1    -0.900000E-01   12.0110           0
      4428 MEMB     76       CHL1     H25      HAL1     0.900000E-01   1.00800           0
      4429 MEMB     76       CHL1     C26      CTL3    -0.270000       12.0110           0
      4430 MEMB     76       CHL1     H26A     HAL3     0.900000E-01   1.00800           0
      4431 MEMB     76       CHL1     H26B     HAL3     0.900000E-01   1.00800           0
      4432 MEMB     76       CHL1     H26C     HAL3     0.900000E-01   1.00800           0
      4433 MEMB     76       CHL1     C27      CTL3    -0.270000       12.0110           0
      4434 MEMB     76       CHL1     H27A     HAL3     0.900000E-01   1.00800           0
      4435 MEMB     76       CHL1     H27B     HAL3     0.900000E-01   1.00800           0
      4436 MEMB     76       CHL1     H27C     HAL3     0.900000E-01   1.00800           0
      4437 MEMB     81       CHL1     C3       CRL1     0.140000       12.0110           0
      4438 MEMB     81       CHL1     H3       HGA1     0.900000E-01   1.00800           0
      4439 MEMB     81       CHL1     O3       OHL     -0.660000       15.9994           0
      4440 MEMB     81       CHL1     H3'      HOL      0.430000       1.00800           0
      4441 MEMB     81       CHL1     C4       CRL2    -0.180000       12.0110           0
      4442 MEMB     81       CHL1     H4A      HGA2     0.900000E-01   1.00800           0
      4443 MEMB     81       CHL1     H4B      HGA2     0.900000E-01   1.00800           0
      4444 MEMB     81       CHL1     C5       CEL1     0.000000       12.0110           0
      4445 MEMB     81       CHL1     C6       CEL1    -0.150000       12.0110           0
      4446 MEMB     81       CHL1     H6       HEL1     0.150000       1.00800           0
      4447 MEMB     81       CHL1     C7       CRL2    -0.180000       12.0110           0
      4448 MEMB     81       CHL1     H7A      HGA2     0.900000E-01   1.00800           0
      4449 MEMB     81       CHL1     H7B      HGA2     0.900000E-01   1.00800           0
      4450 MEMB     81       CHL1     C8       CRL1    -0.900000E-01   12.0110           0
      4451 MEMB     81       CHL1     H8       HGA1     0.900000E-01   1.00800           0
      4452 MEMB     81       CHL1     C14      CRL1    -0.900000E-01   12.0110           0
      4453 MEMB     81       CHL1     H14      HGA1     0.900000E-01   1.00800           0
      4454 MEMB     81       CHL1     C15      CRL2    -0.180000       12.0110           0
      4455 MEMB     81       CHL1     H15A     HGA2     0.900000E-01   1.00800           0
      4456 MEMB     81       CHL1     H15B     HGA2     0.900000E-01   1.00800           0
      4457 MEMB     81       CHL1     C16      CRL2    -0.180000       12.0110           0
      4458 MEMB     81       CHL1     H16A     HGA2     0.900000E-01   1.00800           0
      4459 MEMB     81       CHL1     H16B     HGA2     0.900000E-01   1.00800           0
      4460 MEMB     81       CHL1     C17      CRL1    -0.900000E-01   12.0110           0
      4461 MEMB     81       CHL1     H17      HGA1     0.900000E-01   1.00800           0
      4462 MEMB     81       CHL1     C13      CRL1     0.000000       12.0110           0
      4463 MEMB     81       CHL1     C18      CTL3    -0.270000       12.0110           0
      4464 MEMB     81       CHL1     H18A     HAL3     0.900000E-01   1.00800           0
      4465 MEMB     81       CHL1     H18B     HAL3     0.900000E-01   1.00800           0
      4466 MEMB     81       CHL1     H18C     HAL3     0.900000E-01   1.00800           0
      4467 MEMB     81       CHL1     C12      CRL2    -0.180000       12.0110           0
      4468 MEMB     81       CHL1     H12A     HGA2     0.900000E-01   1.00800           0
      4469 MEMB     81       CHL1     H12B     HGA2     0.900000E-01   1.00800           0
      4470 MEMB     81       CHL1     C11      CRL2    -0.180000       12.0110           0
      4471 MEMB     81       CHL1     H11A     HGA2     0.900000E-01   1.00800           0
      4472 MEMB     81       CHL1     H11B     HGA2     0.900000E-01   1.00800           0
      4473 MEMB     81       CHL1     C9       CRL1    -0.900000E-01   12.0110           0
      4474 MEMB     81       CHL1     H9       HGA1     0.900000E-01   1.00800           0
      4475 MEMB     81       CHL1     C10      CRL1     0.000000       12.0110           0
      4476 MEMB     81       CHL1     C19      CTL3    -0.270000       12.0110           0
      4477 MEMB     81       CHL1     H19A     HAL3     0.900000E-01   1.00800           0
      4478 MEMB     81       CHL1     H19B     HAL3     0.900000E-01   1.00800           0
      4479 MEMB     81       CHL1     H19C     HAL3     0.900000E-01   1.00800           0
      4480 MEMB     81       CHL1     C1       CRL2    -0.180000       12.0110           0
      4481 MEMB     81       CHL1     H1A      HGA2     0.900000E-01   1.00800           0
      4482 MEMB     81       CHL1     H1B      HGA2     0.900000E-01   1.00800           0
      4483 MEMB     81       CHL1     C2       CRL2    -0.180000       12.0110           0
      4484 MEMB     81       CHL1     H2A      HGA2     0.900000E-01   1.00800           0
      4485 MEMB     81       CHL1     H2B      HGA2     0.900000E-01   1.00800           0
      4486 MEMB     81       CHL1     C20      CTL1    -0.900000E-01   12.0110           0
      4487 MEMB     81       CHL1     H20      HAL1     0.900000E-01   1.00800           0
      4488 MEMB     81       CHL1     C21      CTL3    -0.270000       12.0110           0
      4489 MEMB     81       CHL1     H21A     HAL3     0.900000E-01   1.00800           0
      4490 MEMB     81       CHL1     H21B     HAL3     0.900000E-01   1.00800           0
      4491 MEMB     81       CHL1     H21C     HAL3     0.900000E-01   1.00800           0
      4492 MEMB     81       CHL1     C22      CTL2    -0.180000       12.0110           0
      4493 MEMB     81       CHL1     H22A     HAL2     0.900000E-01   1.00800           0
      4494 MEMB     81       CHL1     H22B     HAL2     0.900000E-01   1.00800           0
      4495 MEMB     81       CHL1     C23      CTL2    -0.180000       12.0110           0
      4496 MEMB     81       CHL1     H23A     HAL2     0.900000E-01   1.00800           0
      4497 MEMB     81       CHL1     H23B     HAL2     0.900000E-01   1.00800           0
      4498 MEMB     81       CHL1     C24      CTL2    -0.180000       12.0110           0
      4499 MEMB     81       CHL1     H24A     HAL2     0.900000E-01   1.00800           0
      4500 MEMB     81       CHL1     H24B     HAL2     0.900000E-01   1.00800           0
      4501 MEMB     81       CHL1     C25      CTL1    -0.900000E-01   12.0110           0
      4502 MEMB     81       CHL1     H25      HAL1     0.900000E-01   1.00800           0
      4503 MEMB     81       CHL1     C26      CTL3    -0.270000       12.0110           0
      4504 MEMB     81       CHL1     H26A     HAL3     0.900000E-01   1.00800           0
      4505 MEMB     81       CHL1     H26B     HAL3     0.900000E-01   1.00800           0
      4506 MEMB     81       CHL1     H26C     HAL3     0.900000E-01   1.00800           0
      4507 MEMB     81       CHL1     C27      CTL3    -0.270000       12.0110           0
      4508 MEMB     81       CHL1     H27A     HAL3     0.900000E-01   1.00800           0
      4509 MEMB     81       CHL1     H27B     HAL3     0.900000E-01   1.00800           0
      4510 MEMB     81       CHL1     H27C     HAL3     0.900000E-01   1.00800           0
      4511 MEMB     86       CHL1     C3       CRL1     0.140000       12.0110           0
      4512 MEMB     86       CHL1     H3       HGA1     0.900000E-01   1.00800           0
      4513 MEMB     86       CHL1     O3       OHL     -0.660000       15.9994           0
      4514 MEMB     86       CHL1     H3'      HOL      0.430000       1.00800           0
      4515 MEMB     86       CHL1     C4       CRL2    -0.180000       12.0110           0
      4516 MEMB     86       CHL1     H4A      HGA2     0.900000E-01   1.00800           0
      4517 MEMB     86       CHL1     H4B      HGA2     0.900000E-01   1.00800           0
      4518 MEMB     86       CHL1     C5       CEL1     0.000000       12.0110           0
      4519 MEMB     86       CHL1     C6       CEL1    -0.150000       12.0110           0
      4520 MEMB     86       CHL1     H6       HEL1     0.150000       1.00800           0
      4521 MEMB     86       CHL1     C7       CRL2    -0.180000       12.0110           0
      4522 MEMB     86       CHL1     H7A      HGA2     0.900000E-01   1.00800           0
      4523 MEMB     86       CHL1     H7B      HGA2     0.900000E-01   1.00800           0
      4524 MEMB     86       CHL1     C8       CRL1    -0.900000E-01   12.0110           0
      4525 MEMB     86       CHL1     H8       HGA1     0.900000E-01   1.00800           0
      4526 MEMB     86       CHL1     C14      CRL1    -0.900000E-01   12.0110           0
      4527 MEMB     86       CHL1     H14      HGA1     0.900000E-01   1.00800           0
      4528 MEMB     86       CHL1     C15      CRL2    -0.180000       12.0110           0
      4529 MEMB     86       CHL1     H15A     HGA2     0.900000E-01   1.00800           0
      4530 MEMB     86       CHL1     H15B     HGA2     0.900000E-01   1.00800           0
      4531 MEMB     86       CHL1     C16      CRL2    -0.180000       12.0110           0
      4532 MEMB     86       CHL1     H16A     HGA2     0.900000E-01   1.00800           0
      4533 MEMB     86       CHL1     H16B     HGA2     0.900000E-01   1.00800           0
      4534 MEMB     86       CHL1     C17      CRL1    -0.900000E-01   12.0110           0
      4535 MEMB     86       CHL1     H17      HGA1     0.900000E-01   1.00800           0
      4536 MEMB     86       CHL1     C13      CRL1     0.000000       12.0110           0
      4537 MEMB     86       CHL1     C18      CTL3    -0.270000       12.0110           0
      4538 MEMB     86       CHL1     H18A     HAL3     0.900000E-01   1.00800           0
      4539 MEMB     86       CHL1     H18B     HAL3     0.900000E-01   1.00800           0
      4540 MEMB     86       CHL1     H18C     HAL3     0.900000E-01   1.00800           0
      4541 MEMB     86       CHL1     C12      CRL2    -0.180000       12.0110           0
      4542 MEMB     86       CHL1     H12A     HGA2     0.900000E-01   1.00800           0
      4543 MEMB     86       CHL1     H12B     HGA2     0.900000E-01   1.00800           0
      4544 MEMB     86       CHL1     C11      CRL2    -0.180000       12.0110           0
      4545 MEMB     86       CHL1     H11A     HGA2     0.900000E-01   1.00800           0
      4546 MEMB     86       CHL1     H11B     HGA2     0.900000E-01   1.00800           0
      4547 MEMB     86       CHL1     C9       CRL1    -0.900000E-01   12.0110           0
      4548 MEMB     86       CHL1     H9       HGA1     0.900000E-01   1.00800           0
      4549 MEMB     86       CHL1     C10      CRL1     0.000000       12.0110           0
      4550 MEMB     86       CHL1     C19      CTL3    -0.270000       12.0110           0
      4551 MEMB     86       CHL1     H19A     HAL3     0.900000E-01   1.00800           0
      4552 MEMB     86       CHL1     H19B     HAL3     0.900000E-01   1.00800           0
      4553 MEMB     86       CHL1     H19C     HAL3     0.900000E-01   1.00800           0
      4554 MEMB     86       CHL1     C1       CRL2    -0.180000       12.0110           0
      4555 MEMB     86       CHL1     H1A      HGA2     0.900000E-01   1.00800           0
      4556 MEMB     86       CHL1     H1B      HGA2     0.900000E-01   1.00800           0
      4557 MEMB     86       CHL1     C2       CRL2    -0.180000       12.0110           0
      4558 MEMB     86       CHL1     H2A      HGA2     0.900000E-01   1.00800           0
      4559 MEMB     86       CHL1     H2B      HGA2     0.900000E-01   1.00800           0
      4560 MEMB     86       CHL1     C20      CTL1    -0.900000E-01   12.0110           0
      4561 MEMB     86       CHL1     H20      HAL1     0.900000E-01   1.00800           0
      4562 MEMB     86       CHL1     C21      CTL3    -0.270000       12.0110           0
      4563 MEMB     86       CHL1     H21A     HAL3     0.900000E-01   1.00800           0
      4564 MEMB     86       CHL1     H21B     HAL3     0.900000E-01   1.00800           0
      4565 MEMB     86       CHL1     H21C     HAL3     0.900000E-01   1.00800           0
      4566 MEMB     86       CHL1     C22      CTL2    -0.180000       12.0110           0
      4567 MEMB     86       CHL1     H22A     HAL2     0.900000E-01   1.00800           0
      4568 MEMB     86       CHL1     H22B     HAL2     0.900000E-01   1.00800           0
      4569 MEMB     86       CHL1     C23      CTL2    -0.180000       12.0110           0
      4570 MEMB     86       CHL1     H23A     HAL2     0.900000E-01   1.00800           0
      4571 MEMB     86       CHL1     H23B     HAL2     0.900000E-01   1.00800           0
      4572 MEMB     86       CHL1     C24      CTL2    -0.180000       12.0110           0
      4573 MEMB     86       CHL1     H24A     HAL2     0.900000E-01   1.00800           0
      4574 MEMB     86       CHL1     H24B     HAL2     0.900000E-01   1.00800           0
      4575 MEMB     86       CHL1     C25      CTL1    -0.900000E-01   12.0110           0
      4576 MEMB     86       CHL1     H25      HAL1     0.900000E-01   1.00800           0
      4577 MEMB     86       CHL1     C26      CTL3    -0.270000       12.0110           0
      4578 MEMB     86       CHL1     H26A     HAL3     0.900000E-01   1.00800           0
      4579 MEMB     86       CHL1     H26B     HAL3     0.900000E-01   1.00800           0
      4580 MEMB     86       CHL1     H26C     HAL3     0.900000E-01   1.00800           0
      4581 MEMB     86       CHL1     C27      CTL3    -0.270000       12.0110           0
      4582 MEMB     86       CHL1     H27A     HAL3     0.900000E-01   1.00800           0
      4583 MEMB     86       CHL1     H27B     HAL3     0.900000E-01   1.00800           0
      4584 MEMB     86       CHL1     H27C     HAL3     0.900000E-01   1.00800           0
      4585 MEMB     88       CHL1     C3       CRL1     0.140000       12.0110           0
      4586 MEMB     88       CHL1     H3       HGA1     0.900000E-01   1.00800           0
      4587 MEMB     88       CHL1     O3       OHL     -0.660000       15.9994           0
      4588 MEMB     88       CHL1     H3'      HOL      0.430000       1.00800           0
      4589 MEMB     88       CHL1     C4       CRL2    -0.180000       12.0110           0
      4590 MEMB     88       CHL1     H4A      HGA2     0.900000E-01   1.00800           0
      4591 MEMB     88       CHL1     H4B      HGA2     0.900000E-01   1.00800           0
      4592 MEMB     88       CHL1     C5       CEL1     0.000000       12.0110           0
      4593 MEMB     88       CHL1     C6       CEL1    -0.150000       12.0110           0
      4594 MEMB     88       CHL1     H6       HEL1     0.150000       1.00800           0
      4595 MEMB     88       CHL1     C7       CRL2    -0.180000       12.0110           0
      4596 MEMB     88       CHL1     H7A      HGA2     0.900000E-01   1.00800           0
      4597 MEMB     88       CHL1     H7B      HGA2     0.900000E-01   1.00800           0
      4598 MEMB     88       CHL1     C8       CRL1    -0.900000E-01   12.0110           0
      4599 MEMB     88       CHL1     H8       HGA1     0.900000E-01   1.00800           0
      4600 MEMB     88       CHL1     C14      CRL1    -0.900000E-01   12.0110           0
      4601 MEMB     88       CHL1     H14      HGA1     0.900000E-01   1.00800           0
      4602 MEMB     88       CHL1     C15      CRL2    -0.180000       12.0110           0
      4603 MEMB     88       CHL1     H15A     HGA2     0.900000E-01   1.00800           0
      4604 MEMB     88       CHL1     H15B     HGA2     0.900000E-01   1.00800           0
      4605 MEMB     88       CHL1     C16      CRL2    -0.180000       12.0110           0
      4606 MEMB     88       CHL1     H16A     HGA2     0.900000E-01   1.00800           0
      4607 MEMB     88       CHL1     H16B     HGA2     0.900000E-01   1.00800           0
      4608 MEMB     88       CHL1     C17      CRL1    -0.900000E-01   12.0110           0
      4609 MEMB     88       CHL1     H17      HGA1     0.900000E-01   1.00800           0
      4610 MEMB     88       CHL1     C13      CRL1     0.000000       12.0110           0
      4611 MEMB     88       CHL1     C18      CTL3    -0.270000       12.0110           0
      4612 MEMB     88       CHL1     H18A     HAL3     0.900000E-01   1.00800           0
      4613 MEMB     88       CHL1     H18B     HAL3     0.900000E-01   1.00800           0
      4614 MEMB     88       CHL1     H18C     HAL3     0.900000E-01   1.00800           0
      4615 MEMB     88       CHL1     C12      CRL2    -0.180000       12.0110           0
      4616 MEMB     88       CHL1     H12A     HGA2     0.900000E-01   1.00800           0
      4617 MEMB     88       CHL1     H12B     HGA2     0.900000E-01   1.00800           0
      4618 MEMB     88       CHL1     C11      CRL2    -0.180000       12.0110           0
      4619 MEMB     88       CHL1     H11A     HGA2     0.900000E-01   1.00800           0
      4620 MEMB     88       CHL1     H11B     HGA2     0.900000E-01   1.00800           0
      4621 MEMB     88       CHL1     C9       CRL1    -0.900000E-01   12.0110           0
      4622 MEMB     88       CHL1     H9       HGA1     0.900000E-01   1.00800           0
      4623 MEMB     88       CHL1     C10      CRL1     0.000000       12.0110           0
      4624 MEMB     88       CHL1     C19      CTL3    -0.270000       12.0110           0
      4625 MEMB     88       CHL1     H19A     HAL3     0.900000E-01   1.00800           0
      4626 MEMB     88       CHL1     H19B     HAL3     0.900000E-01   1.00800           0
      4627 MEMB     88       CHL1     H19C     HAL3     0.900000E-01   1.00800           0
      4628 MEMB     88       CHL1     C1       CRL2    -0.180000       12.0110           0
      4629 MEMB     88       CHL1     H1A      HGA2     0.900000E-01   1.00800           0
      4630 MEMB     88       CHL1     H1B      HGA2     0.900000E-01   1.00800           0
      4631 MEMB     88       CHL1     C2       CRL2    -0.180000       12.0110           0
      4632 MEMB     88       CHL1     H2A      HGA2     0.900000E-01   1.00800           0
      4633 MEMB     88       CHL1     H2B      HGA2     0.900000E-01   1.00800           0
      4634 MEMB     88       CHL1     C20      CTL1    -0.900000E-01   12.0110           0
      4635 MEMB     88       CHL1     H20      HAL1     0.900000E-01   1.00800           0
      4636 MEMB     88       CHL1     C21      CTL3    -0.270000       12.0110           0
      4637 MEMB     88       CHL1     H21A     HAL3     0.900000E-01   1.00800           0
      4638 MEMB     88       CHL1     H21B     HAL3     0.900000E-01   1.00800           0
      4639 MEMB     88       CHL1     H21C     HAL3     0.900000E-01   1.00800           0
      4640 MEMB     88       CHL1     C22      CTL2    -0.180000       12.0110           0
      4641 MEMB     88       CHL1     H22A     HAL2     0.900000E-01   1.00800           0
      4642 MEMB     88       CHL1     H22B     HAL2     0.900000E-01   1.00800           0
      4643 MEMB     88       CHL1     C23      CTL2    -0.180000       12.0110           0
      4644 MEMB     88       CHL1     H23A     HAL2     0.900000E-01   1.00800           0
      4645 MEMB     88       CHL1     H23B     HAL2     0.900000E-01   1.00800           0
      4646 MEMB     88       CHL1     C24      CTL2    -0.180000       12.0110           0
      4647 MEMB     88       CHL1     H24A     HAL2     0.900000E-01   1.00800           0
      4648 MEMB     88       CHL1     H24B     HAL2     0.900000E-01   1.00800           0
      4649 MEMB     88       CHL1     C25      CTL1    -0.900000E-01   12.0110           0
      4650 MEMB     88       CHL1     H25      HAL1     0.900000E-01   1.00800           0
      4651 MEMB     88       CHL1     C26      CTL3    -0.270000       12.0110           0
      4652 MEMB     88       CHL1     H26A     HAL3     0.900000E-01   1.00800           0
      4653 MEMB     88       CHL1     H26B     HAL3     0.900000E-01   1.00800           0
      4654 MEMB     88       CHL1     H26C     HAL3     0.900000E-01   1.00800           0
      4655 MEMB     88       CHL1     C27      CTL3    -0.270000       12.0110           0
      4656 MEMB     88       CHL1     H27A     HAL3     0.900000E-01   1.00800           0
      4657 MEMB     88       CHL1     H27B     HAL3     0.900000E-01   1.00800           0
      4658 MEMB     88       CHL1     H27C     HAL3     0.900000E-01   1.00800           0
      4659 MEMB     93       CHL1     C3       CRL1     0.140000       12.0110           0
      4660 MEMB     93       CHL1     H3       HGA1     0.900000E-01   1.00800           0
      4661 MEMB     93       CHL1     O3       OHL     -0.660000       15.9994           0
      4662 MEMB     93       CHL1     H3'      HOL      0.430000       1.00800           0
      4663 MEMB     93       CHL1     C4       CRL2    -0.180000       12.0110           0
      4664 MEMB     93       CHL1     H4A      HGA2     0.900000E-01   1.00800           0
      4665 MEMB     93       CHL1     H4B      HGA2     0.900000E-01   1.00800           0
      4666 MEMB     93       CHL1     C5       CEL1     0.000000       12.0110           0
      4667 MEMB     93       CHL1     C6       CEL1    -0.150000       12.0110           0
      4668 MEMB     93       CHL1     H6       HEL1     0.150000       1.00800           0
      4669 MEMB     93       CHL1     C7       CRL2    -0.180000       12.0110           0
      4670 MEMB     93       CHL1     H7A      HGA2     0.900000E-01   1.00800           0
      4671 MEMB     93       CHL1     H7B      HGA2     0.900000E-01   1.00800           0
      4672 MEMB     93       CHL1     C8       CRL1    -0.900000E-01   12.0110           0
      4673 MEMB     93       CHL1     H8       HGA1     0.900000E-01   1.00800           0
      4674 MEMB     93       CHL1     C14      CRL1    -0.900000E-01   12.0110           0
      4675 MEMB     93       CHL1     H14      HGA1     0.900000E-01   1.00800           0
      4676 MEMB     93       CHL1     C15      CRL2    -0.180000       12.0110           0
      4677 MEMB     93       CHL1     H15A     HGA2     0.900000E-01   1.00800           0
      4678 MEMB     93       CHL1     H15B     HGA2     0.900000E-01   1.00800           0
      4679 MEMB     93       CHL1     C16      CRL2    -0.180000       12.0110           0
      4680 MEMB     93       CHL1     H16A     HGA2     0.900000E-01   1.00800           0
      4681 MEMB     93       CHL1     H16B     HGA2     0.900000E-01   1.00800           0
      4682 MEMB     93       CHL1     C17      CRL1    -0.900000E-01   12.0110           0
      4683 MEMB     93       CHL1     H17      HGA1     0.900000E-01   1.00800           0
      4684 MEMB     93       CHL1     C13      CRL1     0.000000       12.0110           0
      4685 MEMB     93       CHL1     C18      CTL3    -0.270000       12.0110           0
      4686 MEMB     93       CHL1     H18A     HAL3     0.900000E-01   1.00800           0
      4687 MEMB     93       CHL1     H18B     HAL3     0.900000E-01   1.00800           0
      4688 MEMB     93       CHL1     H18C     HAL3     0.900000E-01   1.00800           0
      4689 MEMB     93       CHL1     C12      CRL2    -0.180000       12.0110           0
      4690 MEMB     93       CHL1     H12A     HGA2     0.900000E-01   1.00800           0
      4691 MEMB     93       CHL1     H12B     HGA2     0.900000E-01   1.00800           0
      4692 MEMB     93       CHL1     C11      CRL2    -0.180000       12.0110           0
      4693 MEMB     93       CHL1     H11A     HGA2     0.900000E-01   1.00800           0
      4694 MEMB     93       CHL1     H11B     HGA2     0.900000E-01   1.00800           0
      4695 MEMB     93       CHL1     C9       CRL1    -0.900000E-01   12.0110           0
      4696 MEMB     93       CHL1     H9       HGA1     0.900000E-01   1.00800           0
      4697 MEMB     93       CHL1     C10      CRL1     0.000000       12.0110           0
      4698 MEMB     93       CHL1     C19      CTL3    -0.270000       12.0110           0
      4699 MEMB     93       CHL1     H19A     HAL3     0.900000E-01   1.00800           0
      4700 MEMB     93       CHL1     H19B     HAL3     0.900000E-01   1.00800           0
      4701 MEMB     93       CHL1     H19C     HAL3     0.900000E-01   1.00800           0
      4702 MEMB     93       CHL1     C1       CRL2    -0.180000       12.0110           0
      4703 MEMB     93       CHL1     H1A      HGA2     0.900000E-01   1.00800           0
      4704 MEMB     93       CHL1     H1B      HGA2     0.900000E-01   1.00800           0
      4705 MEMB     93       CHL1     C2       CRL2    -0.180000       12.0110           0
      4706 MEMB     93       CHL1     H2A      HGA2     0.900000E-01   1.00800           0
      4707 MEMB     93       CHL1     H2B      HGA2     0.900000E-01   1.00800           0
      4708 MEMB     93       CHL1     C20      CTL1    -0.900000E-01   12.0110           0
      4709 MEMB     93       CHL1     H20      HAL1     0.900000E-01   1.00800           0
      4710 MEMB     93       CHL1     C21      CTL3    -0.270000       12.0110           0
      4711 MEMB     93       CHL1     H21A     HAL3     0.900000E-01   1.00800           0
      4712 MEMB     93       CHL1     H21B     HAL3     0.900000E-01   1.00800           0
      4713 MEMB     93       CHL1     H21C     HAL3     0.900000E-01   1.00800           0
      4714 MEMB     93       CHL1     C22      CTL2    -0.180000       12.0110           0
      4715 MEMB     93       CHL1     H22A     HAL2     0.900000E-01   1.00800           0
      4716 MEMB     93       CHL1     H22B     HAL2     0.900000E-01   1.00800           0
      4717 MEMB     93       CHL1     C23      CTL2    -0.180000       12.0110           0
      4718 MEMB     93       CHL1     H23A     HAL2     0.900000E-01   1.00800           0
      4719 MEMB     93       CHL1     H23B     HAL2     0.900000E-01   1.00800           0
      4720 MEMB     93       CHL1     C24      CTL2    -0.180000       12.0110           0
      4721 MEMB     93       CHL1     H24A     HAL2     0.900000E-01   1.00800           0
      4722 MEMB     93       CHL1     H24B     HAL2     0.900000E-01   1.00800           0
      4723 MEMB     93       CHL1     C25      CTL1    -0.900000E-01   12.0110           0
      4724 MEMB     93       CHL1     H25      HAL1     0.900000E-01   1.00800           0
      4725 MEMB     93       CHL1     C26      CTL3    -0.270000       12.0110           0
      4726 MEMB     93       CHL1     H26A     HAL3     0.900000E-01   1.00800           0
      4727 MEMB     93       CHL1     H26B     HAL3     0.900000E-01   1.00800           0
      4728 MEMB     93       CHL1     H26C     HAL3     0.900000E-01   1.00800           0
      4729 MEMB     93       CHL1     C27      CTL3    -0.270000       12.0110           0
      4730 MEMB     93       CHL1     H27A     HAL3     0.900000E-01   1.00800           0
      4731 MEMB     93       CHL1     H27B     HAL3     0.900000E-01   1.00800           0
      4732 MEMB     93       CHL1     H27C     HAL3     0.900000E-01   1.00800           0
      4733 MEMB     97       CHL1     C3       CRL1     0.140000       12.0110           0
      4734 MEMB     97       CHL1     H3       HGA1     0.900000E-01   1.00800           0
      4735 MEMB     97       CHL1     O3       OHL     -0.660000       15.9994           0
      4736 MEMB     97       CHL1     H3'      HOL      0.430000       1.00800           0
      4737 MEMB     97       CHL1     C4       CRL2    -0.180000       12.0110           0
      4738 MEMB     97       CHL1     H4A      HGA2     0.900000E-01   1.00800           0
      4739 MEMB     97       CHL1     H4B      HGA2     0.900000E-01   1.00800           0
      4740 MEMB     97       CHL1     C5       CEL1     0.000000       12.0110           0
      4741 MEMB     97       CHL1     C6       CEL1    -0.150000       12.0110           0
      4742 MEMB     97       CHL1     H6       HEL1     0.150000       1.00800           0
      4743 MEMB     97       CHL1     C7       CRL2    -0.180000       12.0110           0
      4744 MEMB     97       CHL1     H7A      HGA2     0.900000E-01   1.00800           0
      4745 MEMB     97       CHL1     H7B      HGA2     0.900000E-01   1.00800           0
      4746 MEMB     97       CHL1     C8       CRL1    -0.900000E-01   12.0110           0
      4747 MEMB     97       CHL1     H8       HGA1     0.900000E-01   1.00800           0
      4748 MEMB     97       CHL1     C14      CRL1    -0.900000E-01   12.0110           0
      4749 MEMB     97       CHL1     H14      HGA1     0.900000E-01   1.00800           0
      4750 MEMB     97       CHL1     C15      CRL2    -0.180000       12.0110           0
      4751 MEMB     97       CHL1     H15A     HGA2     0.900000E-01   1.00800           0
      4752 MEMB     97       CHL1     H15B     HGA2     0.900000E-01   1.00800           0
      4753 MEMB     97       CHL1     C16      CRL2    -0.180000       12.0110           0
      4754 MEMB     97       CHL1     H16A     HGA2     0.900000E-01   1.00800           0
      4755 MEMB     97       CHL1     H16B     HGA2     0.900000E-01   1.00800           0
      4756 MEMB     97       CHL1     C17      CRL1    -0.900000E-01   12.0110           0
      4757 MEMB     97       CHL1     H17      HGA1     0.900000E-01   1.00800           0
      4758 MEMB     97       CHL1     C13      CRL1     0.000000       12.0110           0
      4759 MEMB     97       CHL1     C18      CTL3    -0.270000       12.0110           0
      4760 MEMB     97       CHL1     H18A     HAL3     0.900000E-01   1.00800           0
      4761 MEMB     97       CHL1     H18B     HAL3     0.900000E-01   1.00800           0
      4762 MEMB     97       CHL1     H18C     HAL3     0.900000E-01   1.00800           0
      4763 MEMB     97       CHL1     C12      CRL2    -0.180000       12.0110           0
      4764 MEMB     97       CHL1     H12A     HGA2     0.900000E-01   1.00800           0
      4765 MEMB     97       CHL1     H12B     HGA2     0.900000E-01   1.00800           0
      4766 MEMB     97       CHL1     C11      CRL2    -0.180000       12.0110           0
      4767 MEMB     97       CHL1     H11A     HGA2     0.900000E-01   1.00800           0
      4768 MEMB     97       CHL1     H11B     HGA2     0.900000E-01   1.00800           0
      4769 MEMB     97       CHL1     C9       CRL1    -0.900000E-01   12.0110           0
      4770 MEMB     97       CHL1     H9       HGA1     0.900000E-01   1.00800           0
      4771 MEMB     97       CHL1     C10      CRL1     0.000000       12.0110           0
      4772 MEMB     97       CHL1     C19      CTL3    -0.270000       12.0110           0
      4773 MEMB     97       CHL1     H19A     HAL3     0.900000E-01   1.00800           0
      4774 MEMB     97       CHL1     H19B     HAL3     0.900000E-01   1.00800           0
      4775 MEMB     97       CHL1     H19C     HAL3     0.900000E-01   1.00800           0
      4776 MEMB     97       CHL1     C1       CRL2    -0.180000       12.0110           0
      4777 MEMB     97       CHL1     H1A      HGA2     0.900000E-01   1.00800           0
      4778 MEMB     97       CHL1     H1B      HGA2     0.900000E-01   1.00800           0
      4779 MEMB     97       CHL1     C2       CRL2    -0.180000       12.0110           0
      4780 MEMB     97       CHL1     H2A      HGA2     0.900000E-01   1.00800           0
      4781 MEMB     97       CHL1     H2B      HGA2     0.900000E-01   1.00800           0
      4782 MEMB     97       CHL1     C20      CTL1    -0.900000E-01   12.0110           0
      4783 MEMB     97       CHL1     H20      HAL1     0.900000E-01   1.00800           0
      4784 MEMB     97       CHL1     C21      CTL3    -0.270000       12.0110           0
      4785 MEMB     97       CHL1     H21A     HAL3     0.900000E-01   1.00800           0
      4786 MEMB     97       CHL1     H21B     HAL3     0.900000E-01   1.00800           0
      4787 MEMB     97       CHL1     H21C     HAL3     0.900000E-01   1.00800           0
      4788 MEMB     97       CHL1     C22      CTL2    -0.180000       12.0110           0
      4789 MEMB     97       CHL1     H22A     HAL2     0.900000E-01   1.00800           0
      4790 MEMB     97       CHL1     H22B     HAL2     0.900000E-01   1.00800           0
      4791 MEMB     97       CHL1     C23      CTL2    -0.180000       12.0110           0
      4792 MEMB     97       CHL1     H23A     HAL2     0.900000E-01   1.00800           0
      4793 MEMB     97       CHL1     H23B     HAL2     0.900000E-01   1.00800           0
      4794 MEMB     97       CHL1     C24      CTL2    -0.180000       12.0110           0
      4795 MEMB     97       CHL1     H24A     HAL2     0.900000E-01   1.00800           0
      4796 MEMB     97       CHL1     H24B     HAL2     0.900000E-01   1.00800           0
      4797 MEMB     97       CHL1     C25      CTL1    -0.900000E-01   12.0110           0
      4798 MEMB     97       CHL1     H25      HAL1     0.900000E-01   1.00800           0
      4799 MEMB     97       CHL1     C26      CTL3    -0.270000       12.0110           0
      4800 MEMB     97       CHL1     H26A     HAL3     0.900000E-01   1.00800           0
      4801 MEMB     97       CHL1     H26B     HAL3     0.900000E-01   1.00800           0
      4802 MEMB     97       CHL1     H26C     HAL3     0.900000E-01   1.00800           0
      4803 MEMB     97       CHL1     C27      CTL3    -0.270000       12.0110           0
      4804 MEMB     97       CHL1     H27A     HAL3     0.900000E-01   1.00800           0
      4805 MEMB     97       CHL1     H27B     HAL3     0.900000E-01   1.00800           0
      4806 MEMB     97       CHL1     H27C     HAL3     0.900000E-01   1.00800           0
      4807 MEMB     101      CHL1     C3       CRL1     0.140000       12.0110           0
      4808 MEMB     101      CHL1     H3       HGA1     0.900000E-01   1.00800           0
      4809 MEMB     101      CHL1     O3       OHL     -0.660000       15.9994           0
      4810 MEMB     101      CHL1     H3'      HOL      0.430000       1.00800           0
      4811 MEMB     101      CHL1     C4       CRL2    -0.180000       12.0110           0
      4812 MEMB     101      CHL1     H4A      HGA2     0.900000E-01   1.00800           0
      4813 MEMB     101      CHL1     H4B      HGA2     0.900000E-01   1.00800           0
      4814 MEMB     101      CHL1     C5       CEL1     0.000000       12.0110           0
      4815 MEMB     101      CHL1     C6       CEL1    -0.150000       12.0110           0
      4816 MEMB     101      CHL1     H6       HEL1     0.150000       1.00800           0
      4817 MEMB     101      CHL1     C7       CRL2    -0.180000       12.0110           0
      4818 MEMB     101      CHL1     H7A      HGA2     0.900000E-01   1.00800           0
      4819 MEMB     101      CHL1     H7B      HGA2     0.900000E-01   1.00800           0
      4820 MEMB     101      CHL1     C8       CRL1    -0.900000E-01   12.0110           0
      4821 MEMB     101      CHL1     H8       HGA1     0.900000E-01   1.00800           0
      4822 MEMB     101      CHL1     C14      CRL1    -0.900000E-01   12.0110           0
      4823 MEMB     101      CHL1     H14      HGA1     0.900000E-01   1.00800           0
      4824 MEMB     101      CHL1     C15      CRL2    -0.180000       12.0110           0
      4825 MEMB     101      CHL1     H15A     HGA2     0.900000E-01   1.00800           0
      4826 MEMB     101      CHL1     H15B     HGA2     0.900000E-01   1.00800           0
      4827 MEMB     101      CHL1     C16      CRL2    -0.180000       12.0110           0
      4828 MEMB     101      CHL1     H16A     HGA2     0.900000E-01   1.00800           0
      4829 MEMB     101      CHL1     H16B     HGA2     0.900000E-01   1.00800           0
      4830 MEMB     101      CHL1     C17      CRL1    -0.900000E-01   12.0110           0
      4831 MEMB     101      CHL1     H17      HGA1     0.900000E-01   1.00800           0
      4832 MEMB     101      CHL1     C13      CRL1     0.000000       12.0110           0
      4833 MEMB     101      CHL1     C18      CTL3    -0.270000       12.0110           0
      4834 MEMB     101      CHL1     H18A     HAL3     0.900000E-01   1.00800           0
      4835 MEMB     101      CHL1     H18B     HAL3     0.900000E-01   1.00800           0
      4836 MEMB     101      CHL1     H18C     HAL3     0.900000E-01   1.00800           0
      4837 MEMB     101      CHL1     C12      CRL2    -0.180000       12.0110           0
      4838 MEMB     101      CHL1     H12A     HGA2     0.900000E-01   1.00800           0
      4839 MEMB     101      CHL1     H12B     HGA2     0.900000E-01   1.00800           0
      4840 MEMB     101      CHL1     C11      CRL2    -0.180000       12.0110           0
      4841 MEMB     101      CHL1     H11A     HGA2     0.900000E-01   1.00800           0
      4842 MEMB     101      CHL1     H11B     HGA2     0.900000E-01   1.00800           0
      4843 MEMB     101      CHL1     C9       CRL1    -0.900000E-01   12.0110           0
      4844 MEMB     101      CHL1     H9       HGA1     0.900000E-01   1.00800           0
      4845 MEMB     101      CHL1     C10      CRL1     0.000000       12.0110           0
      4846 MEMB     101      CHL1     C19      CTL3    -0.270000       12.0110           0
      4847 MEMB     101      CHL1     H19A     HAL3     0.900000E-01   1.00800           0
      4848 MEMB     101      CHL1     H19B     HAL3     0.900000E-01   1.00800           0
      4849 MEMB     101      CHL1     H19C     HAL3     0.900000E-01   1.00800           0
      4850 MEMB     101      CHL1     C1       CRL2    -0.180000       12.0110           0
      4851 MEMB     101      CHL1     H1A      HGA2     0.900000E-01   1.00800           0
      4852 MEMB     101      CHL1     H1B      HGA2     0.900000E-01   1.00800           0
      4853 MEMB     101      CHL1     C2       CRL2    -0.180000       12.0110           0
      4854 MEMB     101      CHL1     H2A      HGA2     0.900000E-01   1.00800           0
      4855 MEMB     101      CHL1     H2B      HGA2     0.900000E-01   1.00800           0
      4856 MEMB     101      CHL1     C20      CTL1    -0.900000E-01   12.0110           0
      4857 MEMB     101      CHL1     H20      HAL1     0.900000E-01   1.00800           0
      4858 MEMB     101      CHL1     C21      CTL3    -0.270000       12.0110           0
      4859 MEMB     101      CHL1     H21A     HAL3     0.900000E-01   1.00800           0
      4860 MEMB     101      CHL1     H21B     HAL3     0.900000E-01   1.00800           0
      4861 MEMB     101      CHL1     H21C     HAL3     0.900000E-01   1.00800           0
      4862 MEMB     101      CHL1     C22      CTL2    -0.180000       12.0110           0
      4863 MEMB     101      CHL1     H22A     HAL2     0.900000E-01   1.00800           0
      4864 MEMB     101      CHL1     H22B     HAL2     0.900000E-01   1.00800           0
      4865 MEMB     101      CHL1     C23      CTL2    -0.180000       12.0110           0
      4866 MEMB     101      CHL1     H23A     HAL2     0.900000E-01   1.00800           0
      4867 MEMB     101      CHL1     H23B     HAL2     0.900000E-01   1.00800           0
      4868 MEMB     101      CHL1     C24      CTL2    -0.180000       12.0110           0
      4869 MEMB     101      CHL1     H24A     HAL2     0.900000E-01   1.00800           0
      4870 MEMB     101      CHL1     H24B     HAL2     0.900000E-01   1.00800           0
      4871 MEMB     101      CHL1     C25      CTL1    -0.900000E-01   12.0110           0
      4872 MEMB     101      CHL1     H25      HAL1     0.900000E-01   1.00800           0
      4873 MEMB     101      CHL1     C26      CTL3    -0.270000       12.0110           0
      4874 MEMB     101      CHL1     H26A     HAL3     0.900000E-01   1.00800           0
      4875 MEMB     101      CHL1     H26B     HAL3     0.900000E-01   1.00800           0
      4876 MEMB     101      CHL1     H26C     HAL3     0.900000E-01   1.00800           0
      4877 MEMB     101      CHL1     C27      CTL3    -0.270000       12.0110           0
      4878 MEMB     101      CHL1     H27A     HAL3     0.900000E-01   1.00800           0
      4879 MEMB     101      CHL1     H27B     HAL3     0.900000E-01   1.00800           0
      4880 MEMB     101      CHL1     H27C     HAL3     0.900000E-01   1.00800           0
      4881 MEMB     102      CHL1     C3       CRL1     0.140000       12.0110           0
      4882 MEMB     102      CHL1     H3       HGA1     0.900000E-01   1.00800           0
      4883 MEMB     102      CHL1     O3       OHL     -0.660000       15.9994           0
      4884 MEMB     102      CHL1     H3'      HOL      0.430000       1.00800           0
      4885 MEMB     102      CHL1     C4       CRL2    -0.180000       12.0110           0
      4886 MEMB     102      CHL1     H4A      HGA2     0.900000E-01   1.00800           0
      4887 MEMB     102      CHL1     H4B      HGA2     0.900000E-01   1.00800           0
      4888 MEMB     102      CHL1     C5       CEL1     0.000000       12.0110           0
      4889 MEMB     102      CHL1     C6       CEL1    -0.150000       12.0110           0
      4890 MEMB     102      CHL1     H6       HEL1     0.150000       1.00800           0
      4891 MEMB     102      CHL1     C7       CRL2    -0.180000       12.0110           0
      4892 MEMB     102      CHL1     H7A      HGA2     0.900000E-01   1.00800           0
      4893 MEMB     102      CHL1     H7B      HGA2     0.900000E-01   1.00800           0
      4894 MEMB     102      CHL1     C8       CRL1    -0.900000E-01   12.0110           0
      4895 MEMB     102      CHL1     H8       HGA1     0.900000E-01   1.00800           0
      4896 MEMB     102      CHL1     C14      CRL1    -0.900000E-01   12.0110           0
      4897 MEMB     102      CHL1     H14      HGA1     0.900000E-01   1.00800           0
      4898 MEMB     102      CHL1     C15      CRL2    -0.180000       12.0110           0
      4899 MEMB     102      CHL1     H15A     HGA2     0.900000E-01   1.00800           0
      4900 MEMB     102      CHL1     H15B     HGA2     0.900000E-01   1.00800           0
      4901 MEMB     102      CHL1     C16      CRL2    -0.180000       12.0110           0
      4902 MEMB     102      CHL1     H16A     HGA2     0.900000E-01   1.00800           0
      4903 MEMB     102      CHL1     H16B     HGA2     0.900000E-01   1.00800           0
      4904 MEMB     102      CHL1     C17      CRL1    -0.900000E-01   12.0110           0
      4905 MEMB     102      CHL1     H17      HGA1     0.900000E-01   1.00800           0
      4906 MEMB     102      CHL1     C13      CRL1     0.000000       12.0110           0
      4907 MEMB     102      CHL1     C18      CTL3    -0.270000       12.0110           0
      4908 MEMB     102      CHL1     H18A     HAL3     0.900000E-01   1.00800           0
      4909 MEMB     102      CHL1     H18B     HAL3     0.900000E-01   1.00800           0
      4910 MEMB     102      CHL1     H18C     HAL3     0.900000E-01   1.00800           0
      4911 MEMB     102      CHL1     C12      CRL2    -0.180000       12.0110           0
      4912 MEMB     102      CHL1     H12A     HGA2     0.900000E-01   1.00800           0
      4913 MEMB     102      CHL1     H12B     HGA2     0.900000E-01   1.00800           0
      4914 MEMB     102      CHL1     C11      CRL2    -0.180000       12.0110           0
      4915 MEMB     102      CHL1     H11A     HGA2     0.900000E-01   1.00800           0
      4916 MEMB     102      CHL1     H11B     HGA2     0.900000E-01   1.00800           0
      4917 MEMB     102      CHL1     C9       CRL1    -0.900000E-01   12.0110           0
      4918 MEMB     102      CHL1     H9       HGA1     0.900000E-01   1.00800           0
      4919 MEMB     102      CHL1     C10      CRL1     0.000000       12.0110           0
      4920 MEMB     102      CHL1     C19      CTL3    -0.270000       12.0110           0
      4921 MEMB     102      CHL1     H19A     HAL3     0.900000E-01   1.00800           0
      4922 MEMB     102      CHL1     H19B     HAL3     0.900000E-01   1.00800           0
      4923 MEMB     102      CHL1     H19C     HAL3     0.900000E-01   1.00800           0
      4924 MEMB     102      CHL1     C1       CRL2    -0.180000       12.0110           0
      4925 MEMB     102      CHL1     H1A      HGA2     0.900000E-01   1.00800           0
      4926 MEMB     102      CHL1     H1B      HGA2     0.900000E-01   1.00800           0
      4927 MEMB     102      CHL1     C2       CRL2    -0.180000       12.0110           0
      4928 MEMB     102      CHL1     H2A      HGA2     0.900000E-01   1.00800           0
      4929 MEMB     102      CHL1     H2B      HGA2     0.900000E-01   1.00800           0
      4930 MEMB     102      CHL1     C20      CTL1    -0.900000E-01   12.0110           0
      4931 MEMB     102      CHL1     H20      HAL1     0.900000E-01   1.00800           0
      4932 MEMB     102      CHL1     C21      CTL3    -0.270000       12.0110           0
      4933 MEMB     102      CHL1     H21A     HAL3     0.900000E-01   1.00800           0
      4934 MEMB     102      CHL1     H21B     HAL3     0.900000E-01   1.00800           0
      4935 MEMB     102      CHL1     H21C     HAL3     0.900000E-01   1.00800           0
      4936 MEMB     102      CHL1     C22      CTL2    -0.180000       12.0110           0
      4937 MEMB     102      CHL1     H22A     HAL2     0.900000E-01   1.00800           0
      4938 MEMB     102      CHL1     H22B     HAL2     0.900000E-01   1.00800           0
      4939 MEMB     102      CHL1     C23      CTL2    -0.180000       12.0110           0
      4940 MEMB     102      CHL1     H23A     HAL2     0.900000E-01   1.00800           0
      4941 MEMB     102      CHL1     H23B     HAL2     0.900000E-01   1.00800           0
      4942 MEMB     102      CHL1     C24      CTL2    -0.180000       12.0110           0
      4943 MEMB     102      CHL1     H24A     HAL2     0.900000E-01   1.00800           0
      4944 MEMB     102      CHL1     H24B     HAL2     0.900000E-01   1.00800           0
      4945 MEMB     102      CHL1     C25      CTL1    -0.900000E-01   12.0110           0
      4946 MEMB     102      CHL1     H25      HAL1     0.900000E-01   1.00800           0
      4947 MEMB     102      CHL1     C26      CTL3    -0.270000       12.0110           0
      4948 MEMB     102      CHL1     H26A     HAL3     0.900000E-01   1.00800           0
      4949 MEMB     102      CHL1     H26B     HAL3     0.900000E-01   1.00800           0
      4950 MEMB     102      CHL1     H26C     HAL3     0.900000E-01   1.00800           0
      4951 MEMB     102      CHL1     C27      CTL3    -0.270000       12.0110           0
      4952 MEMB     102      CHL1     H27A     HAL3     0.900000E-01   1.00800           0
      4953 MEMB     102      CHL1     H27B     HAL3     0.900000E-01   1.00800           0
      4954 MEMB     102      CHL1     H27C     HAL3     0.900000E-01   1.00800           0
      4955 MEMB     110      CHL1     C3       CRL1     0.140000       12.0110           0
      4956 MEMB     110      CHL1     H3       HGA1     0.900000E-01   1.00800           0
      4957 MEMB     110      CHL1     O3       OHL     -0.660000       15.9994           0
      4958 MEMB     110      CHL1     H3'      HOL      0.430000       1.00800           0
      4959 MEMB     110      CHL1     C4       CRL2    -0.180000       12.0110           0
      4960 MEMB     110      CHL1     H4A      HGA2     0.900000E-01   1.00800           0
      4961 MEMB     110      CHL1     H4B      HGA2     0.900000E-01   1.00800           0
      4962 MEMB     110      CHL1     C5       CEL1     0.000000       12.0110           0
      4963 MEMB     110      CHL1     C6       CEL1    -0.150000       12.0110           0
      4964 MEMB     110      CHL1     H6       HEL1     0.150000       1.00800           0
      4965 MEMB     110      CHL1     C7       CRL2    -0.180000       12.0110           0
      4966 MEMB     110      CHL1     H7A      HGA2     0.900000E-01   1.00800           0
      4967 MEMB     110      CHL1     H7B      HGA2     0.900000E-01   1.00800           0
      4968 MEMB     110      CHL1     C8       CRL1    -0.900000E-01   12.0110           0
      4969 MEMB     110      CHL1     H8       HGA1     0.900000E-01   1.00800           0
      4970 MEMB     110      CHL1     C14      CRL1    -0.900000E-01   12.0110           0
      4971 MEMB     110      CHL1     H14      HGA1     0.900000E-01   1.00800           0
      4972 MEMB     110      CHL1     C15      CRL2    -0.180000       12.0110           0
      4973 MEMB     110      CHL1     H15A     HGA2     0.900000E-01   1.00800           0
      4974 MEMB     110      CHL1     H15B     HGA2     0.900000E-01   1.00800           0
      4975 MEMB     110      CHL1     C16      CRL2    -0.180000       12.0110           0
      4976 MEMB     110      CHL1     H16A     HGA2     0.900000E-01   1.00800           0
      4977 MEMB     110      CHL1     H16B     HGA2     0.900000E-01   1.00800           0
      4978 MEMB     110      CHL1     C17      CRL1    -0.900000E-01   12.0110           0
      4979 MEMB     110      CHL1     H17      HGA1     0.900000E-01   1.00800           0
      4980 MEMB     110      CHL1     C13      CRL1     0.000000       12.0110           0
      4981 MEMB     110      CHL1     C18      CTL3    -0.270000       12.0110           0
      4982 MEMB     110      CHL1     H18A     HAL3     0.900000E-01   1.00800           0
      4983 MEMB     110      CHL1     H18B     HAL3     0.900000E-01   1.00800           0
      4984 MEMB     110      CHL1     H18C     HAL3     0.900000E-01   1.00800           0
      4985 MEMB     110      CHL1     C12      CRL2    -0.180000       12.0110           0
      4986 MEMB     110      CHL1     H12A     HGA2     0.900000E-01   1.00800           0
      4987 MEMB     110      CHL1     H12B     HGA2     0.900000E-01   1.00800           0
      4988 MEMB     110      CHL1     C11      CRL2    -0.180000       12.0110           0
      4989 MEMB     110      CHL1     H11A     HGA2     0.900000E-01   1.00800           0
      4990 MEMB     110      CHL1     H11B     HGA2     0.900000E-01   1.00800           0
      4991 MEMB     110      CHL1     C9       CRL1    -0.900000E-01   12.0110           0
      4992 MEMB     110      CHL1     H9       HGA1     0.900000E-01   1.00800           0
      4993 MEMB     110      CHL1     C10      CRL1     0.000000       12.0110           0
      4994 MEMB     110      CHL1     C19      CTL3    -0.270000       12.0110           0
      4995 MEMB     110      CHL1     H19A     HAL3     0.900000E-01   1.00800           0
      4996 MEMB     110      CHL1     H19B     HAL3     0.900000E-01   1.00800           0
      4997 MEMB     110      CHL1     H19C     HAL3     0.900000E-01   1.00800           0
      4998 MEMB     110      CHL1     C1       CRL2    -0.180000       12.0110           0
      4999 MEMB     110      CHL1     H1A      HGA2     0.900000E-01   1.00800           0
      5000 MEMB     110      CHL1     H1B      HGA2     0.900000E-01   1.00800           0
      5001 MEMB     110      CHL1     C2       CRL2    -0.180000       12.0110           0
      5002 MEMB     110      CHL1     H2A      HGA2     0.900000E-01   1.00800           0
      5003 MEMB     110      CHL1     H2B      HGA2     0.900000E-01   1.00800           0
      5004 MEMB     110      CHL1     C20      CTL1    -0.900000E-01   12.0110           0
      5005 MEMB     110      CHL1     H20      HAL1     0.900000E-01   1.00800           0
      5006 MEMB     110      CHL1     C21      CTL3    -0.270000       12.0110           0
      5007 MEMB     110      CHL1     H21A     HAL3     0.900000E-01   1.00800           0
      5008 MEMB     110      CHL1     H21B     HAL3     0.900000E-01   1.00800           0
      5009 MEMB     110      CHL1     H21C     HAL3     0.900000E-01   1.00800           0
      5010 MEMB     110      CHL1     C22      CTL2    -0.180000       12.0110           0
      5011 MEMB     110      CHL1     H22A     HAL2     0.900000E-01   1.00800           0
      5012 MEMB     110      CHL1     H22B     HAL2     0.900000E-01   1.00800           0
      5013 MEMB     110      CHL1     C23      CTL2    -0.180000       12.0110           0
      5014 MEMB     110      CHL1     H23A     HAL2     0.900000E-01   1.00800           0
      5015 MEMB     110      CHL1     H23B     HAL2     0.900000E-01   1.00800           0
      5016 MEMB     110      CHL1     C24      CTL2    -0.180000       12.0110           0
      5017 MEMB     110      CHL1     H24A     HAL2     0.900000E-01   1.00800           0
      5018 MEMB     110      CHL1     H24B     HAL2     0.900000E-01   1.00800           0
      5019 MEMB     110      CHL1     C25      CTL1    -0.900000E-01   12.0110           0
      5020 MEMB     110      CHL1     H25      HAL1     0.900000E-01   1.00800           0
      5021 MEMB     110      CHL1     C26      CTL3    -0.270000       12.0110           0
      5022 MEMB     110      CHL1     H26A     HAL3     0.900000E-01   1.00800           0
      5023 MEMB     110      CHL1     H26B     HAL3     0.900000E-01   1.00800           0
      5024 MEMB     110      CHL1     H26C     HAL3     0.900000E-01   1.00800           0
      5025 MEMB     110      CHL1     C27      CTL3    -0.270000       12.0110           0
      5026 MEMB     110      CHL1     H27A     HAL3     0.900000E-01   1.00800           0
      5027 MEMB     110      CHL1     H27B     HAL3     0.900000E-01   1.00800           0
      5028 MEMB     110      CHL1     H27C     HAL3     0.900000E-01   1.00800           0
      5029 MEMB     111      CHL1     C3       CRL1     0.140000       12.0110           0
      5030 MEMB     111      CHL1     H3       HGA1     0.900000E-01   1.00800           0
      5031 MEMB     111      CHL1     O3       OHL     -0.660000       15.9994           0
      5032 MEMB     111      CHL1     H3'      HOL      0.430000       1.00800           0
      5033 MEMB     111      CHL1     C4       CRL2    -0.180000       12.0110           0
      5034 MEMB     111      CHL1     H4A      HGA2     0.900000E-01   1.00800           0
      5035 MEMB     111      CHL1     H4B      HGA2     0.900000E-01   1.00800           0
      5036 MEMB     111      CHL1     C5       CEL1     0.000000       12.0110           0
      5037 MEMB     111      CHL1     C6       CEL1    -0.150000       12.0110           0
      5038 MEMB     111      CHL1     H6       HEL1     0.150000       1.00800           0
      5039 MEMB     111      CHL1     C7       CRL2    -0.180000       12.0110           0
      5040 MEMB     111      CHL1     H7A      HGA2     0.900000E-01   1.00800           0
      5041 MEMB     111      CHL1     H7B      HGA2     0.900000E-01   1.00800           0
      5042 MEMB     111      CHL1     C8       CRL1    -0.900000E-01   12.0110           0
      5043 MEMB     111      CHL1     H8       HGA1     0.900000E-01   1.00800           0
      5044 MEMB     111      CHL1     C14      CRL1    -0.900000E-01   12.0110           0
      5045 MEMB     111      CHL1     H14      HGA1     0.900000E-01   1.00800           0
      5046 MEMB     111      CHL1     C15      CRL2    -0.180000       12.0110           0
      5047 MEMB     111      CHL1     H15A     HGA2     0.900000E-01   1.00800           0
      5048 MEMB     111      CHL1     H15B     HGA2     0.900000E-01   1.00800           0
      5049 MEMB     111      CHL1     C16      CRL2    -0.180000       12.0110           0
      5050 MEMB     111      CHL1     H16A     HGA2     0.900000E-01   1.00800           0
      5051 MEMB     111      CHL1     H16B     HGA2     0.900000E-01   1.00800           0
      5052 MEMB     111      CHL1     C17      CRL1    -0.900000E-01   12.0110           0
      5053 MEMB     111      CHL1     H17      HGA1     0.900000E-01   1.00800           0
      5054 MEMB     111      CHL1     C13      CRL1     0.000000       12.0110           0
      5055 MEMB     111      CHL1     C18      CTL3    -0.270000       12.0110           0
      5056 MEMB     111      CHL1     H18A     HAL3     0.900000E-01   1.00800           0
      5057 MEMB     111      CHL1     H18B     HAL3     0.900000E-01   1.00800           0
      5058 MEMB     111      CHL1     H18C     HAL3     0.900000E-01   1.00800           0
      5059 MEMB     111      CHL1     C12      CRL2    -0.180000       12.0110           0
      5060 MEMB     111      CHL1     H12A     HGA2     0.900000E-01   1.00800           0
      5061 MEMB     111      CHL1     H12B     HGA2     0.900000E-01   1.00800           0
      5062 MEMB     111      CHL1     C11      CRL2    -0.180000       12.0110           0
      5063 MEMB     111      CHL1     H11A     HGA2     0.900000E-01   1.00800           0
      5064 MEMB     111      CHL1     H11B     HGA2     0.900000E-01   1.00800           0
      5065 MEMB     111      CHL1     C9       CRL1    -0.900000E-01   12.0110           0
      5066 MEMB     111      CHL1     H9       HGA1     0.900000E-01   1.00800           0
      5067 MEMB     111      CHL1     C10      CRL1     0.000000       12.0110           0
      5068 MEMB     111      CHL1     C19      CTL3    -0.270000       12.0110           0
      5069 MEMB     111      CHL1     H19A     HAL3     0.900000E-01   1.00800           0
      5070 MEMB     111      CHL1     H19B     HAL3     0.900000E-01   1.00800           0
      5071 MEMB     111      CHL1     H19C     HAL3     0.900000E-01   1.00800           0
      5072 MEMB     111      CHL1     C1       CRL2    -0.180000       12.0110           0
      5073 MEMB     111      CHL1     H1A      HGA2     0.900000E-01   1.00800           0
      5074 MEMB     111      CHL1     H1B      HGA2     0.900000E-01   1.00800           0
      5075 MEMB     111      CHL1     C2       CRL2    -0.180000       12.0110           0
      5076 MEMB     111      CHL1     H2A      HGA2     0.900000E-01   1.00800           0
      5077 MEMB     111      CHL1     H2B      HGA2     0.900000E-01   1.00800           0
      5078 MEMB     111      CHL1     C20      CTL1    -0.900000E-01   12.0110           0
      5079 MEMB     111      CHL1     H20      HAL1     0.900000E-01   1.00800           0
      5080 MEMB     111      CHL1     C21      CTL3    -0.270000       12.0110           0
      5081 MEMB     111      CHL1     H21A     HAL3     0.900000E-01   1.00800           0
      5082 MEMB     111      CHL1     H21B     HAL3     0.900000E-01   1.00800           0
      5083 MEMB     111      CHL1     H21C     HAL3     0.900000E-01   1.00800           0
      5084 MEMB     111      CHL1     C22      CTL2    -0.180000       12.0110           0
      5085 MEMB     111      CHL1     H22A     HAL2     0.900000E-01   1.00800           0
      5086 MEMB     111      CHL1     H22B     HAL2     0.900000E-01   1.00800           0
      5087 MEMB     111      CHL1     C23      CTL2    -0.180000       12.0110           0
      5088 MEMB     111      CHL1     H23A     HAL2     0.900000E-01   1.00800           0
      5089 MEMB     111      CHL1     H23B     HAL2     0.900000E-01   1.00800           0
      5090 MEMB     111      CHL1     C24      CTL2    -0.180000       12.0110           0
      5091 MEMB     111      CHL1     H24A     HAL2     0.900000E-01   1.00800           0
      5092 MEMB     111      CHL1     H24B     HAL2     0.900000E-01   1.00800           0
      5093 MEMB     111      CHL1     C25      CTL1    -0.900000E-01   12.0110           0
      5094 MEMB     111      CHL1     H25      HAL1     0.900000E-01   1.00800           0
      5095 MEMB     111      CHL1     C26      CTL3    -0.270000       12.0110           0
      5096 MEMB     111      CHL1     H26A     HAL3     0.900000E-01   1.00800           0
      5097 MEMB     111      CHL1     H26B     HAL3     0.900000E-01   1.00800           0
      5098 MEMB     111      CHL1     H26C     HAL3     0.900000E-01   1.00800           0
      5099 MEMB     111      CHL1     C27      CTL3    -0.270000       12.0110           0
      5100 MEMB     111      CHL1     H27A     HAL3     0.900000E-01   1.00800           0
      5101 MEMB     111      CHL1     H27B     HAL3     0.900000E-01   1.00800           0
      5102 MEMB     111      CHL1     H27C     HAL3     0.900000E-01   1.00800           0
      5103 MEMB     120      CHL1     C3       CRL1     0.140000       12.0110           0
      5104 MEMB     120      CHL1     H3       HGA1     0.900000E-01   1.00800           0
      5105 MEMB     120      CHL1     O3       OHL     -0.660000       15.9994           0
      5106 MEMB     120      CHL1     H3'      HOL      0.430000       1.00800           0
      5107 MEMB     120      CHL1     C4       CRL2    -0.180000       12.0110           0
      5108 MEMB     120      CHL1     H4A      HGA2     0.900000E-01   1.00800           0
      5109 MEMB     120      CHL1     H4B      HGA2     0.900000E-01   1.00800           0
      5110 MEMB     120      CHL1     C5       CEL1     0.000000       12.0110           0
      5111 MEMB     120      CHL1     C6       CEL1    -0.150000       12.0110           0
      5112 MEMB     120      CHL1     H6       HEL1     0.150000       1.00800           0
      5113 MEMB     120      CHL1     C7       CRL2    -0.180000       12.0110           0
      5114 MEMB     120      CHL1     H7A      HGA2     0.900000E-01   1.00800           0
      5115 MEMB     120      CHL1     H7B      HGA2     0.900000E-01   1.00800           0
      5116 MEMB     120      CHL1     C8       CRL1    -0.900000E-01   12.0110           0
      5117 MEMB     120      CHL1     H8       HGA1     0.900000E-01   1.00800           0
      5118 MEMB     120      CHL1     C14      CRL1    -0.900000E-01   12.0110           0
      5119 MEMB     120      CHL1     H14      HGA1     0.900000E-01   1.00800           0
      5120 MEMB     120      CHL1     C15      CRL2    -0.180000       12.0110           0
      5121 MEMB     120      CHL1     H15A     HGA2     0.900000E-01   1.00800           0
      5122 MEMB     120      CHL1     H15B     HGA2     0.900000E-01   1.00800           0
      5123 MEMB     120      CHL1     C16      CRL2    -0.180000       12.0110           0
      5124 MEMB     120      CHL1     H16A     HGA2     0.900000E-01   1.00800           0
      5125 MEMB     120      CHL1     H16B     HGA2     0.900000E-01   1.00800           0
      5126 MEMB     120      CHL1     C17      CRL1    -0.900000E-01   12.0110           0
      5127 MEMB     120      CHL1     H17      HGA1     0.900000E-01   1.00800           0
      5128 MEMB     120      CHL1     C13      CRL1     0.000000       12.0110           0
      5129 MEMB     120      CHL1     C18      CTL3    -0.270000       12.0110           0
      5130 MEMB     120      CHL1     H18A     HAL3     0.900000E-01   1.00800           0
      5131 MEMB     120      CHL1     H18B     HAL3     0.900000E-01   1.00800           0
      5132 MEMB     120      CHL1     H18C     HAL3     0.900000E-01   1.00800           0
      5133 MEMB     120      CHL1     C12      CRL2    -0.180000       12.0110           0
      5134 MEMB     120      CHL1     H12A     HGA2     0.900000E-01   1.00800           0
      5135 MEMB     120      CHL1     H12B     HGA2     0.900000E-01   1.00800           0
      5136 MEMB     120      CHL1     C11      CRL2    -0.180000       12.0110           0
      5137 MEMB     120      CHL1     H11A     HGA2     0.900000E-01   1.00800           0
      5138 MEMB     120      CHL1     H11B     HGA2     0.900000E-01   1.00800           0
      5139 MEMB     120      CHL1     C9       CRL1    -0.900000E-01   12.0110           0
      5140 MEMB     120      CHL1     H9       HGA1     0.900000E-01   1.00800           0
      5141 MEMB     120      CHL1     C10      CRL1     0.000000       12.0110           0
      5142 MEMB     120      CHL1     C19      CTL3    -0.270000       12.0110           0
      5143 MEMB     120      CHL1     H19A     HAL3     0.900000E-01   1.00800           0
      5144 MEMB     120      CHL1     H19B     HAL3     0.900000E-01   1.00800           0
      5145 MEMB     120      CHL1     H19C     HAL3     0.900000E-01   1.00800           0
      5146 MEMB     120      CHL1     C1       CRL2    -0.180000       12.0110           0
      5147 MEMB     120      CHL1     H1A      HGA2     0.900000E-01   1.00800           0
      5148 MEMB     120      CHL1     H1B      HGA2     0.900000E-01   1.00800           0
      5149 MEMB     120      CHL1     C2       CRL2    -0.180000       12.0110           0
      5150 MEMB     120      CHL1     H2A      HGA2     0.900000E-01   1.00800           0
      5151 MEMB     120      CHL1     H2B      HGA2     0.900000E-01   1.00800           0
      5152 MEMB     120      CHL1     C20      CTL1    -0.900000E-01   12.0110           0
      5153 MEMB     120      CHL1     H20      HAL1     0.900000E-01   1.00800           0
      5154 MEMB     120      CHL1     C21      CTL3    -0.270000       12.0110           0
      5155 MEMB     120      CHL1     H21A     HAL3     0.900000E-01   1.00800           0
      5156 MEMB     120      CHL1     H21B     HAL3     0.900000E-01   1.00800           0
      5157 MEMB     120      CHL1     H21C     HAL3     0.900000E-01   1.00800           0
      5158 MEMB     120      CHL1     C22      CTL2    -0.180000       12.0110           0
      5159 MEMB     120      CHL1     H22A     HAL2     0.900000E-01   1.00800           0
      5160 MEMB     120      CHL1     H22B     HAL2     0.900000E-01   1.00800           0
      5161 MEMB     120      CHL1     C23      CTL2    -0.180000       12.0110           0
      5162 MEMB     120      CHL1     H23A     HAL2     0.900000E-01   1.00800           0
      5163 MEMB     120      CHL1     H23B     HAL2     0.900000E-01   1.00800           0
      5164 MEMB     120      CHL1     C24      CTL2    -0.180000       12.0110           0
      5165 MEMB     120      CHL1     H24A     HAL2     0.900000E-01   1.00800           0
      5166 MEMB     120      CHL1     H24B     HAL2     0.900000E-01   1.00800           0
      5167 MEMB     120      CHL1     C25      CTL1    -0.900000E-01   12.0110           0
      5168 MEMB     120      CHL1     H25      HAL1     0.900000E-01   1.00800           0
      5169 MEMB     120      CHL1     C26      CTL3    -0.270000       12.0110           0
      5170 MEMB     120      CHL1     H26A     HAL3     0.900000E-01   1.00800           0
      5171 MEMB     120      CHL1     H26B     HAL3     0.900000E-01   1.00800           0
      5172 MEMB     120      CHL1     H26C     HAL3     0.900000E-01   1.00800           0
      5173 MEMB     120      CHL1     C27      CTL3    -0.270000       12.0110           0
      5174 MEMB     120      CHL1     H27A     HAL3     0.900000E-01   1.00800           0
      5175 MEMB     120      CHL1     H27B     HAL3     0.900000E-01   1.00800           0
      5176 MEMB     120      CHL1     H27C     HAL3     0.900000E-01   1.00800           0
      5177 MEMB     126      CHL1     C3       CRL1     0.140000       12.0110           0
      5178 MEMB     126      CHL1     H3       HGA1     0.900000E-01   1.00800           0
      5179 MEMB     126      CHL1     O3       OHL     -0.660000       15.9994           0
      5180 MEMB     126      CHL1     H3'      HOL      0.430000       1.00800           0
      5181 MEMB     126      CHL1     C4       CRL2    -0.180000       12.0110           0
      5182 MEMB     126      CHL1     H4A      HGA2     0.900000E-01   1.00800           0
      5183 MEMB     126      CHL1     H4B      HGA2     0.900000E-01   1.00800           0
      5184 MEMB     126      CHL1     C5       CEL1     0.000000       12.0110           0
      5185 MEMB     126      CHL1     C6       CEL1    -0.150000       12.0110           0
      5186 MEMB     126      CHL1     H6       HEL1     0.150000       1.00800           0
      5187 MEMB     126      CHL1     C7       CRL2    -0.180000       12.0110           0
      5188 MEMB     126      CHL1     H7A      HGA2     0.900000E-01   1.00800           0
      5189 MEMB     126      CHL1     H7B      HGA2     0.900000E-01   1.00800           0
      5190 MEMB     126      CHL1     C8       CRL1    -0.900000E-01   12.0110           0
      5191 MEMB     126      CHL1     H8       HGA1     0.900000E-01   1.00800           0
      5192 MEMB     126      CHL1     C14      CRL1    -0.900000E-01   12.0110           0
      5193 MEMB     126      CHL1     H14      HGA1     0.900000E-01   1.00800           0
      5194 MEMB     126      CHL1     C15      CRL2    -0.180000       12.0110           0
      5195 MEMB     126      CHL1     H15A     HGA2     0.900000E-01   1.00800           0
      5196 MEMB     126      CHL1     H15B     HGA2     0.900000E-01   1.00800           0
      5197 MEMB     126      CHL1     C16      CRL2    -0.180000       12.0110           0
      5198 MEMB     126      CHL1     H16A     HGA2     0.900000E-01   1.00800           0
      5199 MEMB     126      CHL1     H16B     HGA2     0.900000E-01   1.00800           0
      5200 MEMB     126      CHL1     C17      CRL1    -0.900000E-01   12.0110           0
      5201 MEMB     126      CHL1     H17      HGA1     0.900000E-01   1.00800           0
      5202 MEMB     126      CHL1     C13      CRL1     0.000000       12.0110           0
      5203 MEMB     126      CHL1     C18      CTL3    -0.270000       12.0110           0
      5204 MEMB     126      CHL1     H18A     HAL3     0.900000E-01   1.00800           0
      5205 MEMB     126      CHL1     H18B     HAL3     0.900000E-01   1.00800           0
      5206 MEMB     126      CHL1     H18C     HAL3     0.900000E-01   1.00800           0
      5207 MEMB     126      CHL1     C12      CRL2    -0.180000       12.0110           0
      5208 MEMB     126      CHL1     H12A     HGA2     0.900000E-01   1.00800           0
      5209 MEMB     126      CHL1     H12B     HGA2     0.900000E-01   1.00800           0
      5210 MEMB     126      CHL1     C11      CRL2    -0.180000       12.0110           0
      5211 MEMB     126      CHL1     H11A     HGA2     0.900000E-01   1.00800           0
      5212 MEMB     126      CHL1     H11B     HGA2     0.900000E-01   1.00800           0
      5213 MEMB     126      CHL1     C9       CRL1    -0.900000E-01   12.0110           0
      5214 MEMB     126      CHL1     H9       HGA1     0.900000E-01   1.00800           0
      5215 MEMB     126      CHL1     C10      CRL1     0.000000       12.0110           0
      5216 MEMB     126      CHL1     C19      CTL3    -0.270000       12.0110           0
      5217 MEMB     126      CHL1     H19A     HAL3     0.900000E-01   1.00800           0
      5218 MEMB     126      CHL1     H19B     HAL3     0.900000E-01   1.00800           0
      5219 MEMB     126      CHL1     H19C     HAL3     0.900000E-01   1.00800           0
      5220 MEMB     126      CHL1     C1       CRL2    -0.180000       12.0110           0
      5221 MEMB     126      CHL1     H1A      HGA2     0.900000E-01   1.00800           0
      5222 MEMB     126      CHL1     H1B      HGA2     0.900000E-01   1.00800           0
      5223 MEMB     126      CHL1     C2       CRL2    -0.180000       12.0110           0
      5224 MEMB     126      CHL1     H2A      HGA2     0.900000E-01   1.00800           0
      5225 MEMB     126      CHL1     H2B      HGA2     0.900000E-01   1.00800           0
      5226 MEMB     126      CHL1     C20      CTL1    -0.900000E-01   12.0110           0
      5227 MEMB     126      CHL1     H20      HAL1     0.900000E-01   1.00800           0
      5228 MEMB     126      CHL1     C21      CTL3    -0.270000       12.0110           0
      5229 MEMB     126      CHL1     H21A     HAL3     0.900000E-01   1.00800           0
      5230 MEMB     126      CHL1     H21B     HAL3     0.900000E-01   1.00800           0
      5231 MEMB     126      CHL1     H21C     HAL3     0.900000E-01   1.00800           0
      5232 MEMB     126      CHL1     C22      CTL2    -0.180000       12.0110           0
      5233 MEMB     126      CHL1     H22A     HAL2     0.900000E-01   1.00800           0
      5234 MEMB     126      CHL1     H22B     HAL2     0.900000E-01   1.00800           0
      5235 MEMB     126      CHL1     C23      CTL2    -0.180000       12.0110           0
      5236 MEMB     126      CHL1     H23A     HAL2     0.900000E-01   1.00800           0
      5237 MEMB     126      CHL1     H23B     HAL2     0.900000E-01   1.00800           0
      5238 MEMB     126      CHL1     C24      CTL2    -0.180000       12.0110           0
      5239 MEMB     126      CHL1     H24A     HAL2     0.900000E-01   1.00800           0
      5240 MEMB     126      CHL1     H24B     HAL2     0.900000E-01   1.00800           0
      5241 MEMB     126      CHL1     C25      CTL1    -0.900000E-01   12.0110           0
      5242 MEMB     126      CHL1     H25      HAL1     0.900000E-01   1.00800           0
      5243 MEMB     126      CHL1     C26      CTL3    -0.270000       12.0110           0
      5244 MEMB     126      CHL1     H26A     HAL3     0.900000E-01   1.00800           0
      5245 MEMB     126      CHL1     H26B     HAL3     0.900000E-01   1.00800           0
      5246 MEMB     126      CHL1     H26C     HAL3     0.900000E-01   1.00800           0
      5247 MEMB     126      CHL1     C27      CTL3    -0.270000       12.0110           0
      5248 MEMB     126      CHL1     H27A     HAL3     0.900000E-01   1.00800           0
      5249 MEMB     126      CHL1     H27B     HAL3     0.900000E-01   1.00800           0
      5250 MEMB     126      CHL1     H27C     HAL3     0.900000E-01   1.00800           0
      5251 MEMB     128      CHL1     C3       CRL1     0.140000       12.0110           0
      5252 MEMB     128      CHL1     H3       HGA1     0.900000E-01   1.00800           0
      5253 MEMB     128      CHL1     O3       OHL     -0.660000       15.9994           0
      5254 MEMB     128      CHL1     H3'      HOL      0.430000       1.00800           0
      5255 MEMB     128      CHL1     C4       CRL2    -0.180000       12.0110           0
      5256 MEMB     128      CHL1     H4A      HGA2     0.900000E-01   1.00800           0
      5257 MEMB     128      CHL1     H4B      HGA2     0.900000E-01   1.00800           0
      5258 MEMB     128      CHL1     C5       CEL1     0.000000       12.0110           0
      5259 MEMB     128      CHL1     C6       CEL1    -0.150000       12.0110           0
      5260 MEMB     128      CHL1     H6       HEL1     0.150000       1.00800           0
      5261 MEMB     128      CHL1     C7       CRL2    -0.180000       12.0110           0
      5262 MEMB     128      CHL1     H7A      HGA2     0.900000E-01   1.00800           0
      5263 MEMB     128      CHL1     H7B      HGA2     0.900000E-01   1.00800           0
      5264 MEMB     128      CHL1     C8       CRL1    -0.900000E-01   12.0110           0
      5265 MEMB     128      CHL1     H8       HGA1     0.900000E-01   1.00800           0
      5266 MEMB     128      CHL1     C14      CRL1    -0.900000E-01   12.0110           0
      5267 MEMB     128      CHL1     H14      HGA1     0.900000E-01   1.00800           0
      5268 MEMB     128      CHL1     C15      CRL2    -0.180000       12.0110           0
      5269 MEMB     128      CHL1     H15A     HGA2     0.900000E-01   1.00800           0
      5270 MEMB     128      CHL1     H15B     HGA2     0.900000E-01   1.00800           0
      5271 MEMB     128      CHL1     C16      CRL2    -0.180000       12.0110           0
      5272 MEMB     128      CHL1     H16A     HGA2     0.900000E-01   1.00800           0
      5273 MEMB     128      CHL1     H16B     HGA2     0.900000E-01   1.00800           0
      5274 MEMB     128      CHL1     C17      CRL1    -0.900000E-01   12.0110           0
      5275 MEMB     128      CHL1     H17      HGA1     0.900000E-01   1.00800           0
      5276 MEMB     128      CHL1     C13      CRL1     0.000000       12.0110           0
      5277 MEMB     128      CHL1     C18      CTL3    -0.270000       12.0110           0
      5278 MEMB     128      CHL1     H18A     HAL3     0.900000E-01   1.00800           0
      5279 MEMB     128      CHL1     H18B     HAL3     0.900000E-01   1.00800           0
      5280 MEMB     128      CHL1     H18C     HAL3     0.900000E-01   1.00800           0
      5281 MEMB     128      CHL1     C12      CRL2    -0.180000       12.0110           0
      5282 MEMB     128      CHL1     H12A     HGA2     0.900000E-01   1.00800           0
      5283 MEMB     128      CHL1     H12B     HGA2     0.900000E-01   1.00800           0
      5284 MEMB     128      CHL1     C11      CRL2    -0.180000       12.0110           0
      5285 MEMB     128      CHL1     H11A     HGA2     0.900000E-01   1.00800           0
      5286 MEMB     128      CHL1     H11B     HGA2     0.900000E-01   1.00800           0
      5287 MEMB     128      CHL1     C9       CRL1    -0.900000E-01   12.0110           0
      5288 MEMB     128      CHL1     H9       HGA1     0.900000E-01   1.00800           0
      5289 MEMB     128      CHL1     C10      CRL1     0.000000       12.0110           0
      5290 MEMB     128      CHL1     C19      CTL3    -0.270000       12.0110           0
      5291 MEMB     128      CHL1     H19A     HAL3     0.900000E-01   1.00800           0
      5292 MEMB     128      CHL1     H19B     HAL3     0.900000E-01   1.00800           0
      5293 MEMB     128      CHL1     H19C     HAL3     0.900000E-01   1.00800           0
      5294 MEMB     128      CHL1     C1       CRL2    -0.180000       12.0110           0
      5295 MEMB     128      CHL1     H1A      HGA2     0.900000E-01   1.00800           0
      5296 MEMB     128      CHL1     H1B      HGA2     0.900000E-01   1.00800           0
      5297 MEMB     128      CHL1     C2       CRL2    -0.180000       12.0110           0
      5298 MEMB     128      CHL1     H2A      HGA2     0.900000E-01   1.00800           0
      5299 MEMB     128      CHL1     H2B      HGA2     0.900000E-01   1.00800           0
      5300 MEMB     128      CHL1     C20      CTL1    -0.900000E-01   12.0110           0
      5301 MEMB     128      CHL1     H20      HAL1     0.900000E-01   1.00800           0
      5302 MEMB     128      CHL1     C21      CTL3    -0.270000       12.0110           0
      5303 MEMB     128      CHL1     H21A     HAL3     0.900000E-01   1.00800           0
      5304 MEMB     128      CHL1     H21B     HAL3     0.900000E-01   1.00800           0
      5305 MEMB     128      CHL1     H21C     HAL3     0.900000E-01   1.00800           0
      5306 MEMB     128      CHL1     C22      CTL2    -0.180000       12.0110           0
      5307 MEMB     128      CHL1     H22A     HAL2     0.900000E-01   1.00800           0
      5308 MEMB     128      CHL1     H22B     HAL2     0.900000E-01   1.00800           0
      5309 MEMB     128      CHL1     C23      CTL2    -0.180000       12.0110           0
      5310 MEMB     128      CHL1     H23A     HAL2     0.900000E-01   1.00800           0
      5311 MEMB     128      CHL1     H23B     HAL2     0.900000E-01   1.00800           0
      5312 MEMB     128      CHL1     C24      CTL2    -0.180000       12.0110           0
      5313 MEMB     128      CHL1     H24A     HAL2     0.900000E-01   1.00800           0
      5314 MEMB     128      CHL1     H24B     HAL2     0.900000E-01   1.00800           0
      5315 MEMB     128      CHL1     C25      CTL1    -0.900000E-01   12.0110           0
      5316 MEMB     128      CHL1     H25      HAL1     0.900000E-01   1.00800           0
      5317 MEMB     128      CHL1     C26      CTL3    -0.270000       12.0110           0
      5318 MEMB     128      CHL1     H26A     HAL3     0.900000E-01   1.00800           0
      5319 MEMB     128      CHL1     H26B     HAL3     0.900000E-01   1.00800           0
      5320 MEMB     128      CHL1     H26C     HAL3     0.900000E-01   1.00800           0
      5321 MEMB     128      CHL1     C27      CTL3    -0.270000       12.0110           0
      5322 MEMB     128      CHL1     H27A     HAL3     0.900000E-01   1.00800           0
      5323 MEMB     128      CHL1     H27B     HAL3     0.900000E-01   1.00800           0
      5324 MEMB     128      CHL1     H27C     HAL3     0.900000E-01   1.00800           0
      5325 MEMB     132      CHL1     C3       CRL1     0.140000       12.0110           0
      5326 MEMB     132      CHL1     H3       HGA1     0.900000E-01   1.00800           0
      5327 MEMB     132      CHL1     O3       OHL     -0.660000       15.9994           0
      5328 MEMB     132      CHL1     H3'      HOL      0.430000       1.00800           0
      5329 MEMB     132      CHL1     C4       CRL2    -0.180000       12.0110           0
      5330 MEMB     132      CHL1     H4A      HGA2     0.900000E-01   1.00800           0
      5331 MEMB     132      CHL1     H4B      HGA2     0.900000E-01   1.00800           0
      5332 MEMB     132      CHL1     C5       CEL1     0.000000       12.0110           0
      5333 MEMB     132      CHL1     C6       CEL1    -0.150000       12.0110           0
      5334 MEMB     132      CHL1     H6       HEL1     0.150000       1.00800           0
      5335 MEMB     132      CHL1     C7       CRL2    -0.180000       12.0110           0
      5336 MEMB     132      CHL1     H7A      HGA2     0.900000E-01   1.00800           0
      5337 MEMB     132      CHL1     H7B      HGA2     0.900000E-01   1.00800           0
      5338 MEMB     132      CHL1     C8       CRL1    -0.900000E-01   12.0110           0
      5339 MEMB     132      CHL1     H8       HGA1     0.900000E-01   1.00800           0
      5340 MEMB     132      CHL1     C14      CRL1    -0.900000E-01   12.0110           0
      5341 MEMB     132      CHL1     H14      HGA1     0.900000E-01   1.00800           0
      5342 MEMB     132      CHL1     C15      CRL2    -0.180000       12.0110           0
      5343 MEMB     132      CHL1     H15A     HGA2     0.900000E-01   1.00800           0
      5344 MEMB     132      CHL1     H15B     HGA2     0.900000E-01   1.00800           0
      5345 MEMB     132      CHL1     C16      CRL2    -0.180000       12.0110           0
      5346 MEMB     132      CHL1     H16A     HGA2     0.900000E-01   1.00800           0
      5347 MEMB     132      CHL1     H16B     HGA2     0.900000E-01   1.00800           0
      5348 MEMB     132      CHL1     C17      CRL1    -0.900000E-01   12.0110           0
      5349 MEMB     132      CHL1     H17      HGA1     0.900000E-01   1.00800           0
      5350 MEMB     132      CHL1     C13      CRL1     0.000000       12.0110           0
      5351 MEMB     132      CHL1     C18      CTL3    -0.270000       12.0110           0
      5352 MEMB     132      CHL1     H18A     HAL3     0.900000E-01   1.00800           0
      5353 MEMB     132      CHL1     H18B     HAL3     0.900000E-01   1.00800           0
      5354 MEMB     132      CHL1     H18C     HAL3     0.900000E-01   1.00800           0
      5355 MEMB     132      CHL1     C12      CRL2    -0.180000       12.0110           0
      5356 MEMB     132      CHL1     H12A     HGA2     0.900000E-01   1.00800           0
      5357 MEMB     132      CHL1     H12B     HGA2     0.900000E-01   1.00800           0
      5358 MEMB     132      CHL1     C11      CRL2    -0.180000       12.0110           0
      5359 MEMB     132      CHL1     H11A     HGA2     0.900000E-01   1.00800           0
      5360 MEMB     132      CHL1     H11B     HGA2     0.900000E-01   1.00800           0
      5361 MEMB     132      CHL1     C9       CRL1    -0.900000E-01   12.0110           0
      5362 MEMB     132      CHL1     H9       HGA1     0.900000E-01   1.00800           0
      5363 MEMB     132      CHL1     C10      CRL1     0.000000       12.0110           0
      5364 MEMB     132      CHL1     C19      CTL3    -0.270000       12.0110           0
      5365 MEMB     132      CHL1     H19A     HAL3     0.900000E-01   1.00800           0
      5366 MEMB     132      CHL1     H19B     HAL3     0.900000E-01   1.00800           0
      5367 MEMB     132      CHL1     H19C     HAL3     0.900000E-01   1.00800           0
      5368 MEMB     132      CHL1     C1       CRL2    -0.180000       12.0110           0
      5369 MEMB     132      CHL1     H1A      HGA2     0.900000E-01   1.00800           0
      5370 MEMB     132      CHL1     H1B      HGA2     0.900000E-01   1.00800           0
      5371 MEMB     132      CHL1     C2       CRL2    -0.180000       12.0110           0
      5372 MEMB     132      CHL1     H2A      HGA2     0.900000E-01   1.00800           0
      5373 MEMB     132      CHL1     H2B      HGA2     0.900000E-01   1.00800           0
      5374 MEMB     132      CHL1     C20      CTL1    -0.900000E-01   12.0110           0
      5375 MEMB     132      CHL1     H20      HAL1     0.900000E-01   1.00800           0
      5376 MEMB     132      CHL1     C21      CTL3    -0.270000       12.0110           0
      5377 MEMB     132      CHL1     H21A     HAL3     0.900000E-01   1.00800           0
      5378 MEMB     132      CHL1     H21B     HAL3     0.900000E-01   1.00800           0
      5379 MEMB     132      CHL1     H21C     HAL3     0.900000E-01   1.00800           0
      5380 MEMB     132      CHL1     C22      CTL2    -0.180000       12.0110           0
      5381 MEMB     132      CHL1     H22A     HAL2     0.900000E-01   1.00800           0
      5382 MEMB     132      CHL1     H22B     HAL2     0.900000E-01   1.00800           0
      5383 MEMB     132      CHL1     C23      CTL2    -0.180000       12.0110           0
      5384 MEMB     132      CHL1     H23A     HAL2     0.900000E-01   1.00800           0
      5385 MEMB     132      CHL1     H23B     HAL2     0.900000E-01   1.00800           0
      5386 MEMB     132      CHL1     C24      CTL2    -0.180000       12.0110           0
      5387 MEMB     132      CHL1     H24A     HAL2     0.900000E-01   1.00800           0
      5388 MEMB     132      CHL1     H24B     HAL2     0.900000E-01   1.00800           0
      5389 MEMB     132      CHL1     C25      CTL1    -0.900000E-01   12.0110           0
      5390 MEMB     132      CHL1     H25      HAL1     0.900000E-01   1.00800           0
      5391 MEMB     132      CHL1     C26      CTL3    -0.270000       12.0110           0
      5392 MEMB     132      CHL1     H26A     HAL3     0.900000E-01   1.00800           0
      5393 MEMB     132      CHL1     H26B     HAL3     0.900000E-01   1.00800           0
      5394 MEMB     132      CHL1     H26C     HAL3     0.900000E-01   1.00800           0
      5395 MEMB     132      CHL1     C27      CTL3    -0.270000       12.0110           0
      5396 MEMB     132      CHL1     H27A     HAL3     0.900000E-01   1.00800           0
      5397 MEMB     132      CHL1     H27B     HAL3     0.900000E-01   1.00800           0
      5398 MEMB     132      CHL1     H27C     HAL3     0.900000E-01   1.00800           0
      5399 MEMB     139      CHL1     C3       CRL1     0.140000       12.0110           0
      5400 MEMB     139      CHL1     H3       HGA1     0.900000E-01   1.00800           0
      5401 MEMB     139      CHL1     O3       OHL     -0.660000       15.9994           0
      5402 MEMB     139      CHL1     H3'      HOL      0.430000       1.00800           0
      5403 MEMB     139      CHL1     C4       CRL2    -0.180000       12.0110           0
      5404 MEMB     139      CHL1     H4A      HGA2     0.900000E-01   1.00800           0
      5405 MEMB     139      CHL1     H4B      HGA2     0.900000E-01   1.00800           0
      5406 MEMB     139      CHL1     C5       CEL1     0.000000       12.0110           0
      5407 MEMB     139      CHL1     C6       CEL1    -0.150000       12.0110           0
      5408 MEMB     139      CHL1     H6       HEL1     0.150000       1.00800           0
      5409 MEMB     139      CHL1     C7       CRL2    -0.180000       12.0110           0
      5410 MEMB     139      CHL1     H7A      HGA2     0.900000E-01   1.00800           0
      5411 MEMB     139      CHL1     H7B      HGA2     0.900000E-01   1.00800           0
      5412 MEMB     139      CHL1     C8       CRL1    -0.900000E-01   12.0110           0
      5413 MEMB     139      CHL1     H8       HGA1     0.900000E-01   1.00800           0
      5414 MEMB     139      CHL1     C14      CRL1    -0.900000E-01   12.0110           0
      5415 MEMB     139      CHL1     H14      HGA1     0.900000E-01   1.00800           0
      5416 MEMB     139      CHL1     C15      CRL2    -0.180000       12.0110           0
      5417 MEMB     139      CHL1     H15A     HGA2     0.900000E-01   1.00800           0
      5418 MEMB     139      CHL1     H15B     HGA2     0.900000E-01   1.00800           0
      5419 MEMB     139      CHL1     C16      CRL2    -0.180000       12.0110           0
      5420 MEMB     139      CHL1     H16A     HGA2     0.900000E-01   1.00800           0
      5421 MEMB     139      CHL1     H16B     HGA2     0.900000E-01   1.00800           0
      5422 MEMB     139      CHL1     C17      CRL1    -0.900000E-01   12.0110           0
      5423 MEMB     139      CHL1     H17      HGA1     0.900000E-01   1.00800           0
      5424 MEMB     139      CHL1     C13      CRL1     0.000000       12.0110           0
      5425 MEMB     139      CHL1     C18      CTL3    -0.270000       12.0110           0
      5426 MEMB     139      CHL1     H18A     HAL3     0.900000E-01   1.00800           0
      5427 MEMB     139      CHL1     H18B     HAL3     0.900000E-01   1.00800           0
      5428 MEMB     139      CHL1     H18C     HAL3     0.900000E-01   1.00800           0
      5429 MEMB     139      CHL1     C12      CRL2    -0.180000       12.0110           0
      5430 MEMB     139      CHL1     H12A     HGA2     0.900000E-01   1.00800           0
      5431 MEMB     139      CHL1     H12B     HGA2     0.900000E-01   1.00800           0
      5432 MEMB     139      CHL1     C11      CRL2    -0.180000       12.0110           0
      5433 MEMB     139      CHL1     H11A     HGA2     0.900000E-01   1.00800           0
      5434 MEMB     139      CHL1     H11B     HGA2     0.900000E-01   1.00800           0
      5435 MEMB     139      CHL1     C9       CRL1    -0.900000E-01   12.0110           0
      5436 MEMB     139      CHL1     H9       HGA1     0.900000E-01   1.00800           0
      5437 MEMB     139      CHL1     C10      CRL1     0.000000       12.0110           0
      5438 MEMB     139      CHL1     C19      CTL3    -0.270000       12.0110           0
      5439 MEMB     139      CHL1     H19A     HAL3     0.900000E-01   1.00800           0
      5440 MEMB     139      CHL1     H19B     HAL3     0.900000E-01   1.00800           0
      5441 MEMB     139      CHL1     H19C     HAL3     0.900000E-01   1.00800           0
      5442 MEMB     139      CHL1     C1       CRL2    -0.180000       12.0110           0
      5443 MEMB     139      CHL1     H1A      HGA2     0.900000E-01   1.00800           0
      5444 MEMB     139      CHL1     H1B      HGA2     0.900000E-01   1.00800           0
      5445 MEMB     139      CHL1     C2       CRL2    -0.180000       12.0110           0
      5446 MEMB     139      CHL1     H2A      HGA2     0.900000E-01   1.00800           0
      5447 MEMB     139      CHL1     H2B      HGA2     0.900000E-01   1.00800           0
      5448 MEMB     139      CHL1     C20      CTL1    -0.900000E-01   12.0110           0
      5449 MEMB     139      CHL1     H20      HAL1     0.900000E-01   1.00800           0
      5450 MEMB     139      CHL1     C21      CTL3    -0.270000       12.0110           0
      5451 MEMB     139      CHL1     H21A     HAL3     0.900000E-01   1.00800           0
      5452 MEMB     139      CHL1     H21B     HAL3     0.900000E-01   1.00800           0
      5453 MEMB     139      CHL1     H21C     HAL3     0.900000E-01   1.00800           0
      5454 MEMB     139      CHL1     C22      CTL2    -0.180000       12.0110           0
      5455 MEMB     139      CHL1     H22A     HAL2     0.900000E-01   1.00800           0
      5456 MEMB     139      CHL1     H22B     HAL2     0.900000E-01   1.00800           0
      5457 MEMB     139      CHL1     C23      CTL2    -0.180000       12.0110           0
      5458 MEMB     139      CHL1     H23A     HAL2     0.900000E-01   1.00800           0
      5459 MEMB     139      CHL1     H23B     HAL2     0.900000E-01   1.00800           0
      5460 MEMB     139      CHL1     C24      CTL2    -0.180000       12.0110           0
      5461 MEMB     139      CHL1     H24A     HAL2     0.900000E-01   1.00800           0
      5462 MEMB     139      CHL1     H24B     HAL2     0.900000E-01   1.00800           0
      5463 MEMB     139      CHL1     C25      CTL1    -0.900000E-01   12.0110           0
      5464 MEMB     139      CHL1     H25      HAL1     0.900000E-01   1.00800           0
      5465 MEMB     139      CHL1     C26      CTL3    -0.270000       12.0110           0
      5466 MEMB     139      CHL1     H26A     HAL3     0.900000E-01   1.00800           0
      5467 MEMB     139      CHL1     H26B     HAL3     0.900000E-01   1.00800           0
      5468 MEMB     139      CHL1     H26C     HAL3     0.900000E-01   1.00800           0
      5469 MEMB     139      CHL1     C27      CTL3    -0.270000       12.0110           0
      5470 MEMB     139      CHL1     H27A     HAL3     0.900000E-01   1.00800           0
      5471 MEMB     139      CHL1     H27B     HAL3     0.900000E-01   1.00800           0
      5472 MEMB     139      CHL1     H27C     HAL3     0.900000E-01   1.00800           0
      5473 MEMB     144      CHL1     C3       CRL1     0.140000       12.0110           0
      5474 MEMB     144      CHL1     H3       HGA1     0.900000E-01   1.00800           0
      5475 MEMB     144      CHL1     O3       OHL     -0.660000       15.9994           0
      5476 MEMB     144      CHL1     H3'      HOL      0.430000       1.00800           0
      5477 MEMB     144      CHL1     C4       CRL2    -0.180000       12.0110           0
      5478 MEMB     144      CHL1     H4A      HGA2     0.900000E-01   1.00800           0
      5479 MEMB     144      CHL1     H4B      HGA2     0.900000E-01   1.00800           0
      5480 MEMB     144      CHL1     C5       CEL1     0.000000       12.0110           0
      5481 MEMB     144      CHL1     C6       CEL1    -0.150000       12.0110           0
      5482 MEMB     144      CHL1     H6       HEL1     0.150000       1.00800           0
      5483 MEMB     144      CHL1     C7       CRL2    -0.180000       12.0110           0
      5484 MEMB     144      CHL1     H7A      HGA2     0.900000E-01   1.00800           0
      5485 MEMB     144      CHL1     H7B      HGA2     0.900000E-01   1.00800           0
      5486 MEMB     144      CHL1     C8       CRL1    -0.900000E-01   12.0110           0
      5487 MEMB     144      CHL1     H8       HGA1     0.900000E-01   1.00800           0
      5488 MEMB     144      CHL1     C14      CRL1    -0.900000E-01   12.0110           0
      5489 MEMB     144      CHL1     H14      HGA1     0.900000E-01   1.00800           0
      5490 MEMB     144      CHL1     C15      CRL2    -0.180000       12.0110           0
      5491 MEMB     144      CHL1     H15A     HGA2     0.900000E-01   1.00800           0
      5492 MEMB     144      CHL1     H15B     HGA2     0.900000E-01   1.00800           0
      5493 MEMB     144      CHL1     C16      CRL2    -0.180000       12.0110           0
      5494 MEMB     144      CHL1     H16A     HGA2     0.900000E-01   1.00800           0
      5495 MEMB     144      CHL1     H16B     HGA2     0.900000E-01   1.00800           0
      5496 MEMB     144      CHL1     C17      CRL1    -0.900000E-01   12.0110           0
      5497 MEMB     144      CHL1     H17      HGA1     0.900000E-01   1.00800           0
      5498 MEMB     144      CHL1     C13      CRL1     0.000000       12.0110           0
      5499 MEMB     144      CHL1     C18      CTL3    -0.270000       12.0110           0
      5500 MEMB     144      CHL1     H18A     HAL3     0.900000E-01   1.00800           0
      5501 MEMB     144      CHL1     H18B     HAL3     0.900000E-01   1.00800           0
      5502 MEMB     144      CHL1     H18C     HAL3     0.900000E-01   1.00800           0
      5503 MEMB     144      CHL1     C12      CRL2    -0.180000       12.0110           0
      5504 MEMB     144      CHL1     H12A     HGA2     0.900000E-01   1.00800           0
      5505 MEMB     144      CHL1     H12B     HGA2     0.900000E-01   1.00800           0
      5506 MEMB     144      CHL1     C11      CRL2    -0.180000       12.0110           0
      5507 MEMB     144      CHL1     H11A     HGA2     0.900000E-01   1.00800           0
      5508 MEMB     144      CHL1     H11B     HGA2     0.900000E-01   1.00800           0
      5509 MEMB     144      CHL1     C9       CRL1    -0.900000E-01   12.0110           0
      5510 MEMB     144      CHL1     H9       HGA1     0.900000E-01   1.00800           0
      5511 MEMB     144      CHL1     C10      CRL1     0.000000       12.0110           0
      5512 MEMB     144      CHL1     C19      CTL3    -0.270000       12.0110           0
      5513 MEMB     144      CHL1     H19A     HAL3     0.900000E-01   1.00800           0
      5514 MEMB     144      CHL1     H19B     HAL3     0.900000E-01   1.00800           0
      5515 MEMB     144      CHL1     H19C     HAL3     0.900000E-01   1.00800           0
      5516 MEMB     144      CHL1     C1       CRL2    -0.180000       12.0110           0
      5517 MEMB     144      CHL1     H1A      HGA2     0.900000E-01   1.00800           0
      5518 MEMB     144      CHL1     H1B      HGA2     0.900000E-01   1.00800           0
      5519 MEMB     144      CHL1     C2       CRL2    -0.180000       12.0110           0
      5520 MEMB     144      CHL1     H2A      HGA2     0.900000E-01   1.00800           0
      5521 MEMB     144      CHL1     H2B      HGA2     0.900000E-01   1.00800           0
      5522 MEMB     144      CHL1     C20      CTL1    -0.900000E-01   12.0110           0
      5523 MEMB     144      CHL1     H20      HAL1     0.900000E-01   1.00800           0
      5524 MEMB     144      CHL1     C21      CTL3    -0.270000       12.0110           0
      5525 MEMB     144      CHL1     H21A     HAL3     0.900000E-01   1.00800           0
      5526 MEMB     144      CHL1     H21B     HAL3     0.900000E-01   1.00800           0
      5527 MEMB     144      CHL1     H21C     HAL3     0.900000E-01   1.00800           0
      5528 MEMB     144      CHL1     C22      CTL2    -0.180000       12.0110           0
      5529 MEMB     144      CHL1     H22A     HAL2     0.900000E-01   1.00800           0
      5530 MEMB     144      CHL1     H22B     HAL2     0.900000E-01   1.00800           0
      5531 MEMB     144      CHL1     C23      CTL2    -0.180000       12.0110           0
      5532 MEMB     144      CHL1     H23A     HAL2     0.900000E-01   1.00800           0
      5533 MEMB     144      CHL1     H23B     HAL2     0.900000E-01   1.00800           0
      5534 MEMB     144      CHL1     C24      CTL2    -0.180000       12.0110           0
      5535 MEMB     144      CHL1     H24A     HAL2     0.900000E-01   1.00800           0
      5536 MEMB     144      CHL1     H24B     HAL2     0.900000E-01   1.00800           0
      5537 MEMB     144      CHL1     C25      CTL1    -0.900000E-01   12.0110           0
      5538 MEMB     144      CHL1     H25      HAL1     0.900000E-01   1.00800           0
      5539 MEMB     144      CHL1     C26      CTL3    -0.270000       12.0110           0
      5540 MEMB     144      CHL1     H26A     HAL3     0.900000E-01   1.00800           0
      5541 MEMB     144      CHL1     H26B     HAL3     0.900000E-01   1.00800           0
      5542 MEMB     144      CHL1     H26C     HAL3     0.900000E-01   1.00800           0
      5543 MEMB     144      CHL1     C27      CTL3    -0.270000       12.0110           0
      5544 MEMB     144      CHL1     H27A     HAL3     0.900000E-01   1.00800           0
      5545 MEMB     144      CHL1     H27B     HAL3     0.900000E-01   1.00800           0
      5546 MEMB     144      CHL1     H27C     HAL3     0.900000E-01   1.00800           0
      5547 MEMB     145      CHL1     C3       CRL1     0.140000       12.0110           0
      5548 MEMB     145      CHL1     H3       HGA1     0.900000E-01   1.00800           0
      5549 MEMB     145      CHL1     O3       OHL     -0.660000       15.9994           0
      5550 MEMB     145      CHL1     H3'      HOL      0.430000       1.00800           0
      5551 MEMB     145      CHL1     C4       CRL2    -0.180000       12.0110           0
      5552 MEMB     145      CHL1     H4A      HGA2     0.900000E-01   1.00800           0
      5553 MEMB     145      CHL1     H4B      HGA2     0.900000E-01   1.00800           0
      5554 MEMB     145      CHL1     C5       CEL1     0.000000       12.0110           0
      5555 MEMB     145      CHL1     C6       CEL1    -0.150000       12.0110           0
      5556 MEMB     145      CHL1     H6       HEL1     0.150000       1.00800           0
      5557 MEMB     145      CHL1     C7       CRL2    -0.180000       12.0110           0
      5558 MEMB     145      CHL1     H7A      HGA2     0.900000E-01   1.00800           0
      5559 MEMB     145      CHL1     H7B      HGA2     0.900000E-01   1.00800           0
      5560 MEMB     145      CHL1     C8       CRL1    -0.900000E-01   12.0110           0
      5561 MEMB     145      CHL1     H8       HGA1     0.900000E-01   1.00800           0
      5562 MEMB     145      CHL1     C14      CRL1    -0.900000E-01   12.0110           0
      5563 MEMB     145      CHL1     H14      HGA1     0.900000E-01   1.00800           0
      5564 MEMB     145      CHL1     C15      CRL2    -0.180000       12.0110           0
      5565 MEMB     145      CHL1     H15A     HGA2     0.900000E-01   1.00800           0
      5566 MEMB     145      CHL1     H15B     HGA2     0.900000E-01   1.00800           0
      5567 MEMB     145      CHL1     C16      CRL2    -0.180000       12.0110           0
      5568 MEMB     145      CHL1     H16A     HGA2     0.900000E-01   1.00800           0
      5569 MEMB     145      CHL1     H16B     HGA2     0.900000E-01   1.00800           0
      5570 MEMB     145      CHL1     C17      CRL1    -0.900000E-01   12.0110           0
      5571 MEMB     145      CHL1     H17      HGA1     0.900000E-01   1.00800           0
      5572 MEMB     145      CHL1     C13      CRL1     0.000000       12.0110           0
      5573 MEMB     145      CHL1     C18      CTL3    -0.270000       12.0110           0
      5574 MEMB     145      CHL1     H18A     HAL3     0.900000E-01   1.00800           0
      5575 MEMB     145      CHL1     H18B     HAL3     0.900000E-01   1.00800           0
      5576 MEMB     145      CHL1     H18C     HAL3     0.900000E-01   1.00800           0
      5577 MEMB     145      CHL1     C12      CRL2    -0.180000       12.0110           0
      5578 MEMB     145      CHL1     H12A     HGA2     0.900000E-01   1.00800           0
      5579 MEMB     145      CHL1     H12B     HGA2     0.900000E-01   1.00800           0
      5580 MEMB     145      CHL1     C11      CRL2    -0.180000       12.0110           0
      5581 MEMB     145      CHL1     H11A     HGA2     0.900000E-01   1.00800           0
      5582 MEMB     145      CHL1     H11B     HGA2     0.900000E-01   1.00800           0
      5583 MEMB     145      CHL1     C9       CRL1    -0.900000E-01   12.0110           0
      5584 MEMB     145      CHL1     H9       HGA1     0.900000E-01   1.00800           0
      5585 MEMB     145      CHL1     C10      CRL1     0.000000       12.0110           0
      5586 MEMB     145      CHL1     C19      CTL3    -0.270000       12.0110           0
      5587 MEMB     145      CHL1     H19A     HAL3     0.900000E-01   1.00800           0
      5588 MEMB     145      CHL1     H19B     HAL3     0.900000E-01   1.00800           0
      5589 MEMB     145      CHL1     H19C     HAL3     0.900000E-01   1.00800           0
      5590 MEMB     145      CHL1     C1       CRL2    -0.180000       12.0110           0
      5591 MEMB     145      CHL1     H1A      HGA2     0.900000E-01   1.00800           0
      5592 MEMB     145      CHL1     H1B      HGA2     0.900000E-01   1.00800           0
      5593 MEMB     145      CHL1     C2       CRL2    -0.180000       12.0110           0
      5594 MEMB     145      CHL1     H2A      HGA2     0.900000E-01   1.00800           0
      5595 MEMB     145      CHL1     H2B      HGA2     0.900000E-01   1.00800           0
      5596 MEMB     145      CHL1     C20      CTL1    -0.900000E-01   12.0110           0
      5597 MEMB     145      CHL1     H20      HAL1     0.900000E-01   1.00800           0
      5598 MEMB     145      CHL1     C21      CTL3    -0.270000       12.0110           0
      5599 MEMB     145      CHL1     H21A     HAL3     0.900000E-01   1.00800           0
      5600 MEMB     145      CHL1     H21B     HAL3     0.900000E-01   1.00800           0
      5601 MEMB     145      CHL1     H21C     HAL3     0.900000E-01   1.00800           0
      5602 MEMB     145      CHL1     C22      CTL2    -0.180000       12.0110           0
      5603 MEMB     145      CHL1     H22A     HAL2     0.900000E-01   1.00800           0
      5604 MEMB     145      CHL1     H22B     HAL2     0.900000E-01   1.00800           0
      5605 MEMB     145      CHL1     C23      CTL2    -0.180000       12.0110           0
      5606 MEMB     145      CHL1     H23A     HAL2     0.900000E-01   1.00800           0
      5607 MEMB     145      CHL1     H23B     HAL2     0.900000E-01   1.00800           0
      5608 MEMB     145      CHL1     C24      CTL2    -0.180000       12.0110           0
      5609 MEMB     145      CHL1     H24A     HAL2     0.900000E-01   1.00800           0
      5610 MEMB     145      CHL1     H24B     HAL2     0.900000E-01   1.00800           0
      5611 MEMB     145      CHL1     C25      CTL1    -0.900000E-01   12.0110           0
      5612 MEMB     145      CHL1     H25      HAL1     0.900000E-01   1.00800           0
      5613 MEMB     145      CHL1     C26      CTL3    -0.270000       12.0110           0
      5614 MEMB     145      CHL1     H26A     HAL3     0.900000E-01   1.00800           0
      5615 MEMB     145      CHL1     H26B     HAL3     0.900000E-01   1.00800           0
      5616 MEMB     145      CHL1     H26C     HAL3     0.900000E-01   1.00800           0
      5617 MEMB     145      CHL1     C27      CTL3    -0.270000       12.0110           0
      5618 MEMB     145      CHL1     H27A     HAL3     0.900000E-01   1.00800           0
      5619 MEMB     145      CHL1     H27B     HAL3     0.900000E-01   1.00800           0
      5620 MEMB     145      CHL1     H27C     HAL3     0.900000E-01   1.00800           0
      5621 MEMB     146      CHL1     C3       CRL1     0.140000       12.0110           0
      5622 MEMB     146      CHL1     H3       HGA1     0.900000E-01   1.00800           0
      5623 MEMB     146      CHL1     O3       OHL     -0.660000       15.9994           0
      5624 MEMB     146      CHL1     H3'      HOL      0.430000       1.00800           0
      5625 MEMB     146      CHL1     C4       CRL2    -0.180000       12.0110           0
      5626 MEMB     146      CHL1     H4A      HGA2     0.900000E-01   1.00800           0
      5627 MEMB     146      CHL1     H4B      HGA2     0.900000E-01   1.00800           0
      5628 MEMB     146      CHL1     C5       CEL1     0.000000       12.0110           0
      5629 MEMB     146      CHL1     C6       CEL1    -0.150000       12.0110           0
      5630 MEMB     146      CHL1     H6       HEL1     0.150000       1.00800           0
      5631 MEMB     146      CHL1     C7       CRL2    -0.180000       12.0110           0
      5632 MEMB     146      CHL1     H7A      HGA2     0.900000E-01   1.00800           0
      5633 MEMB     146      CHL1     H7B      HGA2     0.900000E-01   1.00800           0
      5634 MEMB     146      CHL1     C8       CRL1    -0.900000E-01   12.0110           0
      5635 MEMB     146      CHL1     H8       HGA1     0.900000E-01   1.00800           0
      5636 MEMB     146      CHL1     C14      CRL1    -0.900000E-01   12.0110           0
      5637 MEMB     146      CHL1     H14      HGA1     0.900000E-01   1.00800           0
      5638 MEMB     146      CHL1     C15      CRL2    -0.180000       12.0110           0
      5639 MEMB     146      CHL1     H15A     HGA2     0.900000E-01   1.00800           0
      5640 MEMB     146      CHL1     H15B     HGA2     0.900000E-01   1.00800           0
      5641 MEMB     146      CHL1     C16      CRL2    -0.180000       12.0110           0
      5642 MEMB     146      CHL1     H16A     HGA2     0.900000E-01   1.00800           0
      5643 MEMB     146      CHL1     H16B     HGA2     0.900000E-01   1.00800           0
      5644 MEMB     146      CHL1     C17      CRL1    -0.900000E-01   12.0110           0
      5645 MEMB     146      CHL1     H17      HGA1     0.900000E-01   1.00800           0
      5646 MEMB     146      CHL1     C13      CRL1     0.000000       12.0110           0
      5647 MEMB     146      CHL1     C18      CTL3    -0.270000       12.0110           0
      5648 MEMB     146      CHL1     H18A     HAL3     0.900000E-01   1.00800           0
      5649 MEMB     146      CHL1     H18B     HAL3     0.900000E-01   1.00800           0
      5650 MEMB     146      CHL1     H18C     HAL3     0.900000E-01   1.00800           0
      5651 MEMB     146      CHL1     C12      CRL2    -0.180000       12.0110           0
      5652 MEMB     146      CHL1     H12A     HGA2     0.900000E-01   1.00800           0
      5653 MEMB     146      CHL1     H12B     HGA2     0.900000E-01   1.00800           0
      5654 MEMB     146      CHL1     C11      CRL2    -0.180000       12.0110           0
      5655 MEMB     146      CHL1     H11A     HGA2     0.900000E-01   1.00800           0
      5656 MEMB     146      CHL1     H11B     HGA2     0.900000E-01   1.00800           0
      5657 MEMB     146      CHL1     C9       CRL1    -0.900000E-01   12.0110           0
      5658 MEMB     146      CHL1     H9       HGA1     0.900000E-01   1.00800           0
      5659 MEMB     146      CHL1     C10      CRL1     0.000000       12.0110           0
      5660 MEMB     146      CHL1     C19      CTL3    -0.270000       12.0110           0
      5661 MEMB     146      CHL1     H19A     HAL3     0.900000E-01   1.00800           0
      5662 MEMB     146      CHL1     H19B     HAL3     0.900000E-01   1.00800           0
      5663 MEMB     146      CHL1     H19C     HAL3     0.900000E-01   1.00800           0
      5664 MEMB     146      CHL1     C1       CRL2    -0.180000       12.0110           0
      5665 MEMB     146      CHL1     H1A      HGA2     0.900000E-01   1.00800           0
      5666 MEMB     146      CHL1     H1B      HGA2     0.900000E-01   1.00800           0
      5667 MEMB     146      CHL1     C2       CRL2    -0.180000       12.0110           0
      5668 MEMB     146      CHL1     H2A      HGA2     0.900000E-01   1.00800           0
      5669 MEMB     146      CHL1     H2B      HGA2     0.900000E-01   1.00800           0
      5670 MEMB     146      CHL1     C20      CTL1    -0.900000E-01   12.0110           0
      5671 MEMB     146      CHL1     H20      HAL1     0.900000E-01   1.00800           0
      5672 MEMB     146      CHL1     C21      CTL3    -0.270000       12.0110           0
      5673 MEMB     146      CHL1     H21A     HAL3     0.900000E-01   1.00800           0
      5674 MEMB     146      CHL1     H21B     HAL3     0.900000E-01   1.00800           0
      5675 MEMB     146      CHL1     H21C     HAL3     0.900000E-01   1.00800           0
      5676 MEMB     146      CHL1     C22      CTL2    -0.180000       12.0110           0
      5677 MEMB     146      CHL1     H22A     HAL2     0.900000E-01   1.00800           0
      5678 MEMB     146      CHL1     H22B     HAL2     0.900000E-01   1.00800           0
      5679 MEMB     146      CHL1     C23      CTL2    -0.180000       12.0110           0
      5680 MEMB     146      CHL1     H23A     HAL2     0.900000E-01   1.00800           0
      5681 MEMB     146      CHL1     H23B     HAL2     0.900000E-01   1.00800           0
      5682 MEMB     146      CHL1     C24      CTL2    -0.180000       12.0110           0
      5683 MEMB     146      CHL1     H24A     HAL2     0.900000E-01   1.00800           0
      5684 MEMB     146      CHL1     H24B     HAL2     0.900000E-01   1.00800           0
      5685 MEMB     146      CHL1     C25      CTL1    -0.900000E-01   12.0110           0
      5686 MEMB     146      CHL1     H25      HAL1     0.900000E-01   1.00800           0
      5687 MEMB     146      CHL1     C26      CTL3    -0.270000       12.0110           0
      5688 MEMB     146      CHL1     H26A     HAL3     0.900000E-01   1.00800           0
      5689 MEMB     146      CHL1     H26B     HAL3     0.900000E-01   1.00800           0
      5690 MEMB     146      CHL1     H26C     HAL3     0.900000E-01   1.00800           0
      5691 MEMB     146      CHL1     C27      CTL3    -0.270000       12.0110           0
      5692 MEMB     146      CHL1     H27A     HAL3     0.900000E-01   1.00800           0
      5693 MEMB     146      CHL1     H27B     HAL3     0.900000E-01   1.00800           0
      5694 MEMB     146      CHL1     H27C     HAL3     0.900000E-01   1.00800           0
      5695 MEMB     147      CHL1     C3       CRL1     0.140000       12.0110           0
      5696 MEMB     147      CHL1     H3       HGA1     0.900000E-01   1.00800           0
      5697 MEMB     147      CHL1     O3       OHL     -0.660000       15.9994           0
      5698 MEMB     147      CHL1     H3'      HOL      0.430000       1.00800           0
      5699 MEMB     147      CHL1     C4       CRL2    -0.180000       12.0110           0
      5700 MEMB     147      CHL1     H4A      HGA2     0.900000E-01   1.00800           0
      5701 MEMB     147      CHL1     H4B      HGA2     0.900000E-01   1.00800           0
      5702 MEMB     147      CHL1     C5       CEL1     0.000000       12.0110           0
      5703 MEMB     147      CHL1     C6       CEL1    -0.150000       12.0110           0
      5704 MEMB     147      CHL1     H6       HEL1     0.150000       1.00800           0
      5705 MEMB     147      CHL1     C7       CRL2    -0.180000       12.0110           0
      5706 MEMB     147      CHL1     H7A      HGA2     0.900000E-01   1.00800           0
      5707 MEMB     147      CHL1     H7B      HGA2     0.900000E-01   1.00800           0
      5708 MEMB     147      CHL1     C8       CRL1    -0.900000E-01   12.0110           0
      5709 MEMB     147      CHL1     H8       HGA1     0.900000E-01   1.00800           0
      5710 MEMB     147      CHL1     C14      CRL1    -0.900000E-01   12.0110           0
      5711 MEMB     147      CHL1     H14      HGA1     0.900000E-01   1.00800           0
      5712 MEMB     147      CHL1     C15      CRL2    -0.180000       12.0110           0
      5713 MEMB     147      CHL1     H15A     HGA2     0.900000E-01   1.00800           0
      5714 MEMB     147      CHL1     H15B     HGA2     0.900000E-01   1.00800           0
      5715 MEMB     147      CHL1     C16      CRL2    -0.180000       12.0110           0
      5716 MEMB     147      CHL1     H16A     HGA2     0.900000E-01   1.00800           0
      5717 MEMB     147      CHL1     H16B     HGA2     0.900000E-01   1.00800           0
      5718 MEMB     147      CHL1     C17      CRL1    -0.900000E-01   12.0110           0
      5719 MEMB     147      CHL1     H17      HGA1     0.900000E-01   1.00800           0
      5720 MEMB     147      CHL1     C13      CRL1     0.000000       12.0110           0
      5721 MEMB     147      CHL1     C18      CTL3    -0.270000       12.0110           0
      5722 MEMB     147      CHL1     H18A     HAL3     0.900000E-01   1.00800           0
      5723 MEMB     147      CHL1     H18B     HAL3     0.900000E-01   1.00800           0
      5724 MEMB     147      CHL1     H18C     HAL3     0.900000E-01   1.00800           0
      5725 MEMB     147      CHL1     C12      CRL2    -0.180000       12.0110           0
      5726 MEMB     147      CHL1     H12A     HGA2     0.900000E-01   1.00800           0
      5727 MEMB     147      CHL1     H12B     HGA2     0.900000E-01   1.00800           0
      5728 MEMB     147      CHL1     C11      CRL2    -0.180000       12.0110           0
      5729 MEMB     147      CHL1     H11A     HGA2     0.900000E-01   1.00800           0
      5730 MEMB     147      CHL1     H11B     HGA2     0.900000E-01   1.00800           0
      5731 MEMB     147      CHL1     C9       CRL1    -0.900000E-01   12.0110           0
      5732 MEMB     147      CHL1     H9       HGA1     0.900000E-01   1.00800           0
      5733 MEMB     147      CHL1     C10      CRL1     0.000000       12.0110           0
      5734 MEMB     147      CHL1     C19      CTL3    -0.270000       12.0110           0
      5735 MEMB     147      CHL1     H19A     HAL3     0.900000E-01   1.00800           0
      5736 MEMB     147      CHL1     H19B     HAL3     0.900000E-01   1.00800           0
      5737 MEMB     147      CHL1     H19C     HAL3     0.900000E-01   1.00800           0
      5738 MEMB     147      CHL1     C1       CRL2    -0.180000       12.0110           0
      5739 MEMB     147      CHL1     H1A      HGA2     0.900000E-01   1.00800           0
      5740 MEMB     147      CHL1     H1B      HGA2     0.900000E-01   1.00800           0
      5741 MEMB     147      CHL1     C2       CRL2    -0.180000       12.0110           0
      5742 MEMB     147      CHL1     H2A      HGA2     0.900000E-01   1.00800           0
      5743 MEMB     147      CHL1     H2B      HGA2     0.900000E-01   1.00800           0
      5744 MEMB     147      CHL1     C20      CTL1    -0.900000E-01   12.0110           0
      5745 MEMB     147      CHL1     H20      HAL1     0.900000E-01   1.00800           0
      5746 MEMB     147      CHL1     C21      CTL3    -0.270000       12.0110           0
      5747 MEMB     147      CHL1     H21A     HAL3     0.900000E-01   1.00800           0
      5748 MEMB     147      CHL1     H21B     HAL3     0.900000E-01   1.00800           0
      5749 MEMB     147      CHL1     H21C     HAL3     0.900000E-01   1.00800           0
      5750 MEMB     147      CHL1     C22      CTL2    -0.180000       12.0110           0
      5751 MEMB     147      CHL1     H22A     HAL2     0.900000E-01   1.00800           0
      5752 MEMB     147      CHL1     H22B     HAL2     0.900000E-01   1.00800           0
      5753 MEMB     147      CHL1     C23      CTL2    -0.180000       12.0110           0
      5754 MEMB     147      CHL1     H23A     HAL2     0.900000E-01   1.00800           0
      5755 MEMB     147      CHL1     H23B     HAL2     0.900000E-01   1.00800           0
      5756 MEMB     147      CHL1     C24      CTL2    -0.180000       12.0110           0
      5757 MEMB     147      CHL1     H24A     HAL2     0.900000E-01   1.00800           0
      5758 MEMB     147      CHL1     H24B     HAL2     0.900000E-01   1.00800           0
      5759 MEMB     147      CHL1     C25      CTL1    -0.900000E-01   12.0110           0
      5760 MEMB     147      CHL1     H25      HAL1     0.900000E-01   1.00800           0
      5761 MEMB     147      CHL1     C26      CTL3    -0.270000       12.0110           0
      5762 MEMB     147      CHL1     H26A     HAL3     0.900000E-01   1.00800           0
      5763 MEMB     147      CHL1     H26B     HAL3     0.900000E-01   1.00800           0
      5764 MEMB     147      CHL1     H26C     HAL3     0.900000E-01   1.00800           0
      5765 MEMB     147      CHL1     C27      CTL3    -0.270000       12.0110           0
      5766 MEMB     147      CHL1     H27A     HAL3     0.900000E-01   1.00800           0
      5767 MEMB     147      CHL1     H27B     HAL3     0.900000E-01   1.00800           0
      5768 MEMB     147      CHL1     H27C     HAL3     0.900000E-01   1.00800           0
      5769 MEMB     149      CHL1     C3       CRL1     0.140000       12.0110           0
      5770 MEMB     149      CHL1     H3       HGA1     0.900000E-01   1.00800           0
      5771 MEMB     149      CHL1     O3       OHL     -0.660000       15.9994           0
      5772 MEMB     149      CHL1     H3'      HOL      0.430000       1.00800           0
      5773 MEMB     149      CHL1     C4       CRL2    -0.180000       12.0110           0
      5774 MEMB     149      CHL1     H4A      HGA2     0.900000E-01   1.00800           0
      5775 MEMB     149      CHL1     H4B      HGA2     0.900000E-01   1.00800           0
      5776 MEMB     149      CHL1     C5       CEL1     0.000000       12.0110           0
      5777 MEMB     149      CHL1     C6       CEL1    -0.150000       12.0110           0
      5778 MEMB     149      CHL1     H6       HEL1     0.150000       1.00800           0
      5779 MEMB     149      CHL1     C7       CRL2    -0.180000       12.0110           0
      5780 MEMB     149      CHL1     H7A      HGA2     0.900000E-01   1.00800           0
      5781 MEMB     149      CHL1     H7B      HGA2     0.900000E-01   1.00800           0
      5782 MEMB     149      CHL1     C8       CRL1    -0.900000E-01   12.0110           0
      5783 MEMB     149      CHL1     H8       HGA1     0.900000E-01   1.00800           0
      5784 MEMB     149      CHL1     C14      CRL1    -0.900000E-01   12.0110           0
      5785 MEMB     149      CHL1     H14      HGA1     0.900000E-01   1.00800           0
      5786 MEMB     149      CHL1     C15      CRL2    -0.180000       12.0110           0
      5787 MEMB     149      CHL1     H15A     HGA2     0.900000E-01   1.00800           0
      5788 MEMB     149      CHL1     H15B     HGA2     0.900000E-01   1.00800           0
      5789 MEMB     149      CHL1     C16      CRL2    -0.180000       12.0110           0
      5790 MEMB     149      CHL1     H16A     HGA2     0.900000E-01   1.00800           0
      5791 MEMB     149      CHL1     H16B     HGA2     0.900000E-01   1.00800           0
      5792 MEMB     149      CHL1     C17      CRL1    -0.900000E-01   12.0110           0
      5793 MEMB     149      CHL1     H17      HGA1     0.900000E-01   1.00800           0
      5794 MEMB     149      CHL1     C13      CRL1     0.000000       12.0110           0
      5795 MEMB     149      CHL1     C18      CTL3    -0.270000       12.0110           0
      5796 MEMB     149      CHL1     H18A     HAL3     0.900000E-01   1.00800           0
      5797 MEMB     149      CHL1     H18B     HAL3     0.900000E-01   1.00800           0
      5798 MEMB     149      CHL1     H18C     HAL3     0.900000E-01   1.00800           0
      5799 MEMB     149      CHL1     C12      CRL2    -0.180000       12.0110           0
      5800 MEMB     149      CHL1     H12A     HGA2     0.900000E-01   1.00800           0
      5801 MEMB     149      CHL1     H12B     HGA2     0.900000E-01   1.00800           0
      5802 MEMB     149      CHL1     C11      CRL2    -0.180000       12.0110           0
      5803 MEMB     149      CHL1     H11A     HGA2     0.900000E-01   1.00800           0
      5804 MEMB     149      CHL1     H11B     HGA2     0.900000E-01   1.00800           0
      5805 MEMB     149      CHL1     C9       CRL1    -0.900000E-01   12.0110           0
      5806 MEMB     149      CHL1     H9       HGA1     0.900000E-01   1.00800           0
      5807 MEMB     149      CHL1     C10      CRL1     0.000000       12.0110           0
      5808 MEMB     149      CHL1     C19      CTL3    -0.270000       12.0110           0
      5809 MEMB     149      CHL1     H19A     HAL3     0.900000E-01   1.00800           0
      5810 MEMB     149      CHL1     H19B     HAL3     0.900000E-01   1.00800           0
      5811 MEMB     149      CHL1     H19C     HAL3     0.900000E-01   1.00800           0
      5812 MEMB     149      CHL1     C1       CRL2    -0.180000       12.0110           0
      5813 MEMB     149      CHL1     H1A      HGA2     0.900000E-01   1.00800           0
      5814 MEMB     149      CHL1     H1B      HGA2     0.900000E-01   1.00800           0
      5815 MEMB     149      CHL1     C2       CRL2    -0.180000       12.0110           0
      5816 MEMB     149      CHL1     H2A      HGA2     0.900000E-01   1.00800           0
      5817 MEMB     149      CHL1     H2B      HGA2     0.900000E-01   1.00800           0
      5818 MEMB     149      CHL1     C20      CTL1    -0.900000E-01   12.0110           0
      5819 MEMB     149      CHL1     H20      HAL1     0.900000E-01   1.00800           0
      5820 MEMB     149      CHL1     C21      CTL3    -0.270000       12.0110           0
      5821 MEMB     149      CHL1     H21A     HAL3     0.900000E-01   1.00800           0
      5822 MEMB     149      CHL1     H21B     HAL3     0.900000E-01   1.00800           0
      5823 MEMB     149      CHL1     H21C     HAL3     0.900000E-01   1.00800           0
      5824 MEMB     149      CHL1     C22      CTL2    -0.180000       12.0110           0
      5825 MEMB     149      CHL1     H22A     HAL2     0.900000E-01   1.00800           0
      5826 MEMB     149      CHL1     H22B     HAL2     0.900000E-01   1.00800           0
      5827 MEMB     149      CHL1     C23      CTL2    -0.180000       12.0110           0
      5828 MEMB     149      CHL1     H23A     HAL2     0.900000E-01   1.00800           0
      5829 MEMB     149      CHL1     H23B     HAL2     0.900000E-01   1.00800           0
      5830 MEMB     149      CHL1     C24      CTL2    -0.180000       12.0110           0
      5831 MEMB     149      CHL1     H24A     HAL2     0.900000E-01   1.00800           0
      5832 MEMB     149      CHL1     H24B     HAL2     0.900000E-01   1.00800           0
      5833 MEMB     149      CHL1     C25      CTL1    -0.900000E-01   12.0110           0
      5834 MEMB     149      CHL1     H25      HAL1     0.900000E-01   1.00800           0
      5835 MEMB     149      CHL1     C26      CTL3    -0.270000       12.0110           0
      5836 MEMB     149      CHL1     H26A     HAL3     0.900000E-01   1.00800           0
      5837 MEMB     149      CHL1     H26B     HAL3     0.900000E-01   1.00800           0
      5838 MEMB     149      CHL1     H26C     HAL3     0.900000E-01   1.00800           0
      5839 MEMB     149      CHL1     C27      CTL3    -0.270000       12.0110           0
      5840 MEMB     149      CHL1     H27A     HAL3     0.900000E-01   1.00800           0
      5841 MEMB     149      CHL1     H27B     HAL3     0.900000E-01   1.00800           0
      5842 MEMB     149      CHL1     H27C     HAL3     0.900000E-01   1.00800           0
      5843 MEMB     160      CHL1     C3       CRL1     0.140000       12.0110           0
      5844 MEMB     160      CHL1     H3       HGA1     0.900000E-01   1.00800           0
      5845 MEMB     160      CHL1     O3       OHL     -0.660000       15.9994           0
      5846 MEMB     160      CHL1     H3'      HOL      0.430000       1.00800           0
      5847 MEMB     160      CHL1     C4       CRL2    -0.180000       12.0110           0
      5848 MEMB     160      CHL1     H4A      HGA2     0.900000E-01   1.00800           0
      5849 MEMB     160      CHL1     H4B      HGA2     0.900000E-01   1.00800           0
      5850 MEMB     160      CHL1     C5       CEL1     0.000000       12.0110           0
      5851 MEMB     160      CHL1     C6       CEL1    -0.150000       12.0110           0
      5852 MEMB     160      CHL1     H6       HEL1     0.150000       1.00800           0
      5853 MEMB     160      CHL1     C7       CRL2    -0.180000       12.0110           0
      5854 MEMB     160      CHL1     H7A      HGA2     0.900000E-01   1.00800           0
      5855 MEMB     160      CHL1     H7B      HGA2     0.900000E-01   1.00800           0
      5856 MEMB     160      CHL1     C8       CRL1    -0.900000E-01   12.0110           0
      5857 MEMB     160      CHL1     H8       HGA1     0.900000E-01   1.00800           0
      5858 MEMB     160      CHL1     C14      CRL1    -0.900000E-01   12.0110           0
      5859 MEMB     160      CHL1     H14      HGA1     0.900000E-01   1.00800           0
      5860 MEMB     160      CHL1     C15      CRL2    -0.180000       12.0110           0
      5861 MEMB     160      CHL1     H15A     HGA2     0.900000E-01   1.00800           0
      5862 MEMB     160      CHL1     H15B     HGA2     0.900000E-01   1.00800           0
      5863 MEMB     160      CHL1     C16      CRL2    -0.180000       12.0110           0
      5864 MEMB     160      CHL1     H16A     HGA2     0.900000E-01   1.00800           0
      5865 MEMB     160      CHL1     H16B     HGA2     0.900000E-01   1.00800           0
      5866 MEMB     160      CHL1     C17      CRL1    -0.900000E-01   12.0110           0
      5867 MEMB     160      CHL1     H17      HGA1     0.900000E-01   1.00800           0
      5868 MEMB     160      CHL1     C13      CRL1     0.000000       12.0110           0
      5869 MEMB     160      CHL1     C18      CTL3    -0.270000       12.0110           0
      5870 MEMB     160      CHL1     H18A     HAL3     0.900000E-01   1.00800           0
      5871 MEMB     160      CHL1     H18B     HAL3     0.900000E-01   1.00800           0
      5872 MEMB     160      CHL1     H18C     HAL3     0.900000E-01   1.00800           0
      5873 MEMB     160      CHL1     C12      CRL2    -0.180000       12.0110           0
      5874 MEMB     160      CHL1     H12A     HGA2     0.900000E-01   1.00800           0
      5875 MEMB     160      CHL1     H12B     HGA2     0.900000E-01   1.00800           0
      5876 MEMB     160      CHL1     C11      CRL2    -0.180000       12.0110           0
      5877 MEMB     160      CHL1     H11A     HGA2     0.900000E-01   1.00800           0
      5878 MEMB     160      CHL1     H11B     HGA2     0.900000E-01   1.00800           0
      5879 MEMB     160      CHL1     C9       CRL1    -0.900000E-01   12.0110           0
      5880 MEMB     160      CHL1     H9       HGA1     0.900000E-01   1.00800           0
      5881 MEMB     160      CHL1     C10      CRL1     0.000000       12.0110           0
      5882 MEMB     160      CHL1     C19      CTL3    -0.270000       12.0110           0
      5883 MEMB     160      CHL1     H19A     HAL3     0.900000E-01   1.00800           0
      5884 MEMB     160      CHL1     H19B     HAL3     0.900000E-01   1.00800           0
      5885 MEMB     160      CHL1     H19C     HAL3     0.900000E-01   1.00800           0
      5886 MEMB     160      CHL1     C1       CRL2    -0.180000       12.0110           0
      5887 MEMB     160      CHL1     H1A      HGA2     0.900000E-01   1.00800           0
      5888 MEMB     160      CHL1     H1B      HGA2     0.900000E-01   1.00800           0
      5889 MEMB     160      CHL1     C2       CRL2    -0.180000       12.0110           0
      5890 MEMB     160      CHL1     H2A      HGA2     0.900000E-01   1.00800           0
      5891 MEMB     160      CHL1     H2B      HGA2     0.900000E-01   1.00800           0
      5892 MEMB     160      CHL1     C20      CTL1    -0.900000E-01   12.0110           0
      5893 MEMB     160      CHL1     H20      HAL1     0.900000E-01   1.00800           0
      5894 MEMB     160      CHL1     C21      CTL3    -0.270000       12.0110           0
      5895 MEMB     160      CHL1     H21A     HAL3     0.900000E-01   1.00800           0
      5896 MEMB     160      CHL1     H21B     HAL3     0.900000E-01   1.00800           0
      5897 MEMB     160      CHL1     H21C     HAL3     0.900000E-01   1.00800           0
      5898 MEMB     160      CHL1     C22      CTL2    -0.180000       12.0110           0
      5899 MEMB     160      CHL1     H22A     HAL2     0.900000E-01   1.00800           0
      5900 MEMB     160      CHL1     H22B     HAL2     0.900000E-01   1.00800           0
      5901 MEMB     160      CHL1     C23      CTL2    -0.180000       12.0110           0
      5902 MEMB     160      CHL1     H23A     HAL2     0.900000E-01   1.00800           0
      5903 MEMB     160      CHL1     H23B     HAL2     0.900000E-01   1.00800           0
      5904 MEMB     160      CHL1     C24      CTL2    -0.180000       12.0110           0
      5905 MEMB     160      CHL1     H24A     HAL2     0.900000E-01   1.00800           0
      5906 MEMB     160      CHL1     H24B     HAL2     0.900000E-01   1.00800           0
      5907 MEMB     160      CHL1     C25      CTL1    -0.900000E-01   12.0110           0
      5908 MEMB     160      CHL1     H25      HAL1     0.900000E-01   1.00800           0
      5909 MEMB     160      CHL1     C26      CTL3    -0.270000       12.0110           0
      5910 MEMB     160      CHL1     H26A     HAL3     0.900000E-01   1.00800           0
      5911 MEMB     160      CHL1     H26B     HAL3     0.900000E-01   1.00800           0
      5912 MEMB     160      CHL1     H26C     HAL3     0.900000E-01   1.00800           0
      5913 MEMB     160      CHL1     C27      CTL3    -0.270000       12.0110           0
      5914 MEMB     160      CHL1     H27A     HAL3     0.900000E-01   1.00800           0
      5915 MEMB     160      CHL1     H27B     HAL3     0.900000E-01   1.00800           0
      5916 MEMB     160      CHL1     H27C     HAL3     0.900000E-01   1.00800           0
      5917 MEMB     162      CHL1     C3       CRL1     0.140000       12.0110           0
      5918 MEMB     162      CHL1     H3       HGA1     0.900000E-01   1.00800           0
      5919 MEMB     162      CHL1     O3       OHL     -0.660000       15.9994           0
      5920 MEMB     162      CHL1     H3'      HOL      0.430000       1.00800           0
      5921 MEMB     162      CHL1     C4       CRL2    -0.180000       12.0110           0
      5922 MEMB     162      CHL1     H4A      HGA2     0.900000E-01   1.00800           0
      5923 MEMB     162      CHL1     H4B      HGA2     0.900000E-01   1.00800           0
      5924 MEMB     162      CHL1     C5       CEL1     0.000000       12.0110           0
      5925 MEMB     162      CHL1     C6       CEL1    -0.150000       12.0110           0
      5926 MEMB     162      CHL1     H6       HEL1     0.150000       1.00800           0
      5927 MEMB     162      CHL1     C7       CRL2    -0.180000       12.0110           0
      5928 MEMB     162      CHL1     H7A      HGA2     0.900000E-01   1.00800           0
      5929 MEMB     162      CHL1     H7B      HGA2     0.900000E-01   1.00800           0
      5930 MEMB     162      CHL1     C8       CRL1    -0.900000E-01   12.0110           0
      5931 MEMB     162      CHL1     H8       HGA1     0.900000E-01   1.00800           0
      5932 MEMB     162      CHL1     C14      CRL1    -0.900000E-01   12.0110           0
      5933 MEMB     162      CHL1     H14      HGA1     0.900000E-01   1.00800           0
      5934 MEMB     162      CHL1     C15      CRL2    -0.180000       12.0110           0
      5935 MEMB     162      CHL1     H15A     HGA2     0.900000E-01   1.00800           0
      5936 MEMB     162      CHL1     H15B     HGA2     0.900000E-01   1.00800           0
      5937 MEMB     162      CHL1     C16      CRL2    -0.180000       12.0110           0
      5938 MEMB     162      CHL1     H16A     HGA2     0.900000E-01   1.00800           0
      5939 MEMB     162      CHL1     H16B     HGA2     0.900000E-01   1.00800           0
      5940 MEMB     162      CHL1     C17      CRL1    -0.900000E-01   12.0110           0
      5941 MEMB     162      CHL1     H17      HGA1     0.900000E-01   1.00800           0
      5942 MEMB     162      CHL1     C13      CRL1     0.000000       12.0110           0
      5943 MEMB     162      CHL1     C18      CTL3    -0.270000       12.0110           0
      5944 MEMB     162      CHL1     H18A     HAL3     0.900000E-01   1.00800           0
      5945 MEMB     162      CHL1     H18B     HAL3     0.900000E-01   1.00800           0
      5946 MEMB     162      CHL1     H18C     HAL3     0.900000E-01   1.00800           0
      5947 MEMB     162      CHL1     C12      CRL2    -0.180000       12.0110           0
      5948 MEMB     162      CHL1     H12A     HGA2     0.900000E-01   1.00800           0
      5949 MEMB     162      CHL1     H12B     HGA2     0.900000E-01   1.00800           0
      5950 MEMB     162      CHL1     C11      CRL2    -0.180000       12.0110           0
      5951 MEMB     162      CHL1     H11A     HGA2     0.900000E-01   1.00800           0
      5952 MEMB     162      CHL1     H11B     HGA2     0.900000E-01   1.00800           0
      5953 MEMB     162      CHL1     C9       CRL1    -0.900000E-01   12.0110           0
      5954 MEMB     162      CHL1     H9       HGA1     0.900000E-01   1.00800           0
      5955 MEMB     162      CHL1     C10      CRL1     0.000000       12.0110           0
      5956 MEMB     162      CHL1     C19      CTL3    -0.270000       12.0110           0
      5957 MEMB     162      CHL1     H19A     HAL3     0.900000E-01   1.00800           0
      5958 MEMB     162      CHL1     H19B     HAL3     0.900000E-01   1.00800           0
      5959 MEMB     162      CHL1     H19C     HAL3     0.900000E-01   1.00800           0
      5960 MEMB     162      CHL1     C1       CRL2    -0.180000       12.0110           0
      5961 MEMB     162      CHL1     H1A      HGA2     0.900000E-01   1.00800           0
      5962 MEMB     162      CHL1     H1B      HGA2     0.900000E-01   1.00800           0
      5963 MEMB     162      CHL1     C2       CRL2    -0.180000       12.0110           0
      5964 MEMB     162      CHL1     H2A      HGA2     0.900000E-01   1.00800           0
      5965 MEMB     162      CHL1     H2B      HGA2     0.900000E-01   1.00800           0
      5966 MEMB     162      CHL1     C20      CTL1    -0.900000E-01   12.0110           0
      5967 MEMB     162      CHL1     H20      HAL1     0.900000E-01   1.00800           0
      5968 MEMB     162      CHL1     C21      CTL3    -0.270000       12.0110           0
      5969 MEMB     162      CHL1     H21A     HAL3     0.900000E-01   1.00800           0
      5970 MEMB     162      CHL1     H21B     HAL3     0.900000E-01   1.00800           0
      5971 MEMB     162      CHL1     H21C     HAL3     0.900000E-01   1.00800           0
      5972 MEMB     162      CHL1     C22      CTL2    -0.180000       12.0110           0
      5973 MEMB     162      CHL1     H22A     HAL2     0.900000E-01   1.00800           0
      5974 MEMB     162      CHL1     H22B     HAL2     0.900000E-01   1.00800           0
      5975 MEMB     162      CHL1     C23      CTL2    -0.180000       12.0110           0
      5976 MEMB     162      CHL1     H23A     HAL2     0.900000E-01   1.00800           0
      5977 MEMB     162      CHL1     H23B     HAL2     0.900000E-01   1.00800           0
      5978 MEMB     162      CHL1     C24      CTL2    -0.180000       12.0110           0
      5979 MEMB     162      CHL1     H24A     HAL2     0.900000E-01   1.00800           0
      5980 MEMB     162      CHL1     H24B     HAL2     0.900000E-01   1.00800           0
      5981 MEMB     162      CHL1     C25      CTL1    -0.900000E-01   12.0110           0
      5982 MEMB     162      CHL1     H25      HAL1     0.900000E-01   1.00800           0
      5983 MEMB     162      CHL1     C26      CTL3    -0.270000       12.0110           0
      5984 MEMB     162      CHL1     H26A     HAL3     0.900000E-01   1.00800           0
      5985 MEMB     162      CHL1     H26B     HAL3     0.900000E-01   1.00800           0
      5986 MEMB     162      CHL1     H26C     HAL3     0.900000E-01   1.00800           0
      5987 MEMB     162      CHL1     C27      CTL3    -0.270000       12.0110           0
      5988 MEMB     162      CHL1     H27A     HAL3     0.900000E-01   1.00800           0
      5989 MEMB     162      CHL1     H27B     HAL3     0.900000E-01   1.00800           0
      5990 MEMB     162      CHL1     H27C     HAL3     0.900000E-01   1.00800           0
      5991 MEMB     164      CHL1     C3       CRL1     0.140000       12.0110           0
      5992 MEMB     164      CHL1     H3       HGA1     0.900000E-01   1.00800           0
      5993 MEMB     164      CHL1     O3       OHL     -0.660000       15.9994           0
      5994 MEMB     164      CHL1     H3'      HOL      0.430000       1.00800           0
      5995 MEMB     164      CHL1     C4       CRL2    -0.180000       12.0110           0
      5996 MEMB     164      CHL1     H4A      HGA2     0.900000E-01   1.00800           0
      5997 MEMB     164      CHL1     H4B      HGA2     0.900000E-01   1.00800           0
      5998 MEMB     164      CHL1     C5       CEL1     0.000000       12.0110           0
      5999 MEMB     164      CHL1     C6       CEL1    -0.150000       12.0110           0
      6000 MEMB     164      CHL1     H6       HEL1     0.150000       1.00800           0
      6001 MEMB     164      CHL1     C7       CRL2    -0.180000       12.0110           0
      6002 MEMB     164      CHL1     H7A      HGA2     0.900000E-01   1.00800           0
      6003 MEMB     164      CHL1     H7B      HGA2     0.900000E-01   1.00800           0
      6004 MEMB     164      CHL1     C8       CRL1    -0.900000E-01   12.0110           0
      6005 MEMB     164      CHL1     H8       HGA1     0.900000E-01   1.00800           0
      6006 MEMB     164      CHL1     C14      CRL1    -0.900000E-01   12.0110           0
      6007 MEMB     164      CHL1     H14      HGA1     0.900000E-01   1.00800           0
      6008 MEMB     164      CHL1     C15      CRL2    -0.180000       12.0110           0
      6009 MEMB     164      CHL1     H15A     HGA2     0.900000E-01   1.00800           0
      6010 MEMB     164      CHL1     H15B     HGA2     0.900000E-01   1.00800           0
      6011 MEMB     164      CHL1     C16      CRL2    -0.180000       12.0110           0
      6012 MEMB     164      CHL1     H16A     HGA2     0.900000E-01   1.00800           0
      6013 MEMB     164      CHL1     H16B     HGA2     0.900000E-01   1.00800           0
      6014 MEMB     164      CHL1     C17      CRL1    -0.900000E-01   12.0110           0
      6015 MEMB     164      CHL1     H17      HGA1     0.900000E-01   1.00800           0
      6016 MEMB     164      CHL1     C13      CRL1     0.000000       12.0110           0
      6017 MEMB     164      CHL1     C18      CTL3    -0.270000       12.0110           0
      6018 MEMB     164      CHL1     H18A     HAL3     0.900000E-01   1.00800           0
      6019 MEMB     164      CHL1     H18B     HAL3     0.900000E-01   1.00800           0
      6020 MEMB     164      CHL1     H18C     HAL3     0.900000E-01   1.00800           0
      6021 MEMB     164      CHL1     C12      CRL2    -0.180000       12.0110           0
      6022 MEMB     164      CHL1     H12A     HGA2     0.900000E-01   1.00800           0
      6023 MEMB     164      CHL1     H12B     HGA2     0.900000E-01   1.00800           0
      6024 MEMB     164      CHL1     C11      CRL2    -0.180000       12.0110           0
      6025 MEMB     164      CHL1     H11A     HGA2     0.900000E-01   1.00800           0
      6026 MEMB     164      CHL1     H11B     HGA2     0.900000E-01   1.00800           0
      6027 MEMB     164      CHL1     C9       CRL1    -0.900000E-01   12.0110           0
      6028 MEMB     164      CHL1     H9       HGA1     0.900000E-01   1.00800           0
      6029 MEMB     164      CHL1     C10      CRL1     0.000000       12.0110           0
      6030 MEMB     164      CHL1     C19      CTL3    -0.270000       12.0110           0
      6031 MEMB     164      CHL1     H19A     HAL3     0.900000E-01   1.00800           0
      6032 MEMB     164      CHL1     H19B     HAL3     0.900000E-01   1.00800           0
      6033 MEMB     164      CHL1     H19C     HAL3     0.900000E-01   1.00800           0
      6034 MEMB     164      CHL1     C1       CRL2    -0.180000       12.0110           0
      6035 MEMB     164      CHL1     H1A      HGA2     0.900000E-01   1.00800           0
      6036 MEMB     164      CHL1     H1B      HGA2     0.900000E-01   1.00800           0
      6037 MEMB     164      CHL1     C2       CRL2    -0.180000       12.0110           0
      6038 MEMB     164      CHL1     H2A      HGA2     0.900000E-01   1.00800           0
      6039 MEMB     164      CHL1     H2B      HGA2     0.900000E-01   1.00800           0
      6040 MEMB     164      CHL1     C20      CTL1    -0.900000E-01   12.0110           0
      6041 MEMB     164      CHL1     H20      HAL1     0.900000E-01   1.00800           0
      6042 MEMB     164      CHL1     C21      CTL3    -0.270000       12.0110           0
      6043 MEMB     164      CHL1     H21A     HAL3     0.900000E-01   1.00800           0
      6044 MEMB     164      CHL1     H21B     HAL3     0.900000E-01   1.00800           0
      6045 MEMB     164      CHL1     H21C     HAL3     0.900000E-01   1.00800           0
      6046 MEMB     164      CHL1     C22      CTL2    -0.180000       12.0110           0
      6047 MEMB     164      CHL1     H22A     HAL2     0.900000E-01   1.00800           0
      6048 MEMB     164      CHL1     H22B     HAL2     0.900000E-01   1.00800           0
      6049 MEMB     164      CHL1     C23      CTL2    -0.180000       12.0110           0
      6050 MEMB     164      CHL1     H23A     HAL2     0.900000E-01   1.00800           0
      6051 MEMB     164      CHL1     H23B     HAL2     0.900000E-01   1.00800           0
      6052 MEMB     164      CHL1     C24      CTL2    -0.180000       12.0110           0
      6053 MEMB     164      CHL1     H24A     HAL2     0.900000E-01   1.00800           0
      6054 MEMB     164      CHL1     H24B     HAL2     0.900000E-01   1.00800           0
      6055 MEMB     164      CHL1     C25      CTL1    -0.900000E-01   12.0110           0
      6056 MEMB     164      CHL1     H25      HAL1     0.900000E-01   1.00800           0
      6057 MEMB     164      CHL1     C26      CTL3    -0.270000       12.0110           0
      6058 MEMB     164      CHL1     H26A     HAL3     0.900000E-01   1.00800           0
      6059 MEMB     164      CHL1     H26B     HAL3     0.900000E-01   1.00800           0
      6060 MEMB     164      CHL1     H26C     HAL3     0.900000E-01   1.00800           0
      6061 MEMB     164      CHL1     C27      CTL3    -0.270000       12.0110           0
      6062 MEMB     164      CHL1     H27A     HAL3     0.900000E-01   1.00800           0
      6063 MEMB     164      CHL1     H27B     HAL3     0.900000E-01   1.00800           0
      6064 MEMB     164      CHL1     H27C     HAL3     0.900000E-01   1.00800           0
      6065 MEMB     170      CHL1     C3       CRL1     0.140000       12.0110           0
      6066 MEMB     170      CHL1     H3       HGA1     0.900000E-01   1.00800           0
      6067 MEMB     170      CHL1     O3       OHL     -0.660000       15.9994           0
      6068 MEMB     170      CHL1     H3'      HOL      0.430000       1.00800           0
      6069 MEMB     170      CHL1     C4       CRL2    -0.180000       12.0110           0
      6070 MEMB     170      CHL1     H4A      HGA2     0.900000E-01   1.00800           0
      6071 MEMB     170      CHL1     H4B      HGA2     0.900000E-01   1.00800           0
      6072 MEMB     170      CHL1     C5       CEL1     0.000000       12.0110           0
      6073 MEMB     170      CHL1     C6       CEL1    -0.150000       12.0110           0
      6074 MEMB     170      CHL1     H6       HEL1     0.150000       1.00800           0
      6075 MEMB     170      CHL1     C7       CRL2    -0.180000       12.0110           0
      6076 MEMB     170      CHL1     H7A      HGA2     0.900000E-01   1.00800           0
      6077 MEMB     170      CHL1     H7B      HGA2     0.900000E-01   1.00800           0
      6078 MEMB     170      CHL1     C8       CRL1    -0.900000E-01   12.0110           0
      6079 MEMB     170      CHL1     H8       HGA1     0.900000E-01   1.00800           0
      6080 MEMB     170      CHL1     C14      CRL1    -0.900000E-01   12.0110           0
      6081 MEMB     170      CHL1     H14      HGA1     0.900000E-01   1.00800           0
      6082 MEMB     170      CHL1     C15      CRL2    -0.180000       12.0110           0
      6083 MEMB     170      CHL1     H15A     HGA2     0.900000E-01   1.00800           0
      6084 MEMB     170      CHL1     H15B     HGA2     0.900000E-01   1.00800           0
      6085 MEMB     170      CHL1     C16      CRL2    -0.180000       12.0110           0
      6086 MEMB     170      CHL1     H16A     HGA2     0.900000E-01   1.00800           0
      6087 MEMB     170      CHL1     H16B     HGA2     0.900000E-01   1.00800           0
      6088 MEMB     170      CHL1     C17      CRL1    -0.900000E-01   12.0110           0
      6089 MEMB     170      CHL1     H17      HGA1     0.900000E-01   1.00800           0
      6090 MEMB     170      CHL1     C13      CRL1     0.000000       12.0110           0
      6091 MEMB     170      CHL1     C18      CTL3    -0.270000       12.0110           0
      6092 MEMB     170      CHL1     H18A     HAL3     0.900000E-01   1.00800           0
      6093 MEMB     170      CHL1     H18B     HAL3     0.900000E-01   1.00800           0
      6094 MEMB     170      CHL1     H18C     HAL3     0.900000E-01   1.00800           0
      6095 MEMB     170      CHL1     C12      CRL2    -0.180000       12.0110           0
      6096 MEMB     170      CHL1     H12A     HGA2     0.900000E-01   1.00800           0
      6097 MEMB     170      CHL1     H12B     HGA2     0.900000E-01   1.00800           0
      6098 MEMB     170      CHL1     C11      CRL2    -0.180000       12.0110           0
      6099 MEMB     170      CHL1     H11A     HGA2     0.900000E-01   1.00800           0
      6100 MEMB     170      CHL1     H11B     HGA2     0.900000E-01   1.00800           0
      6101 MEMB     170      CHL1     C9       CRL1    -0.900000E-01   12.0110           0
      6102 MEMB     170      CHL1     H9       HGA1     0.900000E-01   1.00800           0
      6103 MEMB     170      CHL1     C10      CRL1     0.000000       12.0110           0
      6104 MEMB     170      CHL1     C19      CTL3    -0.270000       12.0110           0
      6105 MEMB     170      CHL1     H19A     HAL3     0.900000E-01   1.00800           0
      6106 MEMB     170      CHL1     H19B     HAL3     0.900000E-01   1.00800           0
      6107 MEMB     170      CHL1     H19C     HAL3     0.900000E-01   1.00800           0
      6108 MEMB     170      CHL1     C1       CRL2    -0.180000       12.0110           0
      6109 MEMB     170      CHL1     H1A      HGA2     0.900000E-01   1.00800           0
      6110 MEMB     170      CHL1     H1B      HGA2     0.900000E-01   1.00800           0
      6111 MEMB     170      CHL1     C2       CRL2    -0.180000       12.0110           0
      6112 MEMB     170      CHL1     H2A      HGA2     0.900000E-01   1.00800           0
      6113 MEMB     170      CHL1     H2B      HGA2     0.900000E-01   1.00800           0
      6114 MEMB     170      CHL1     C20      CTL1    -0.900000E-01   12.0110           0
      6115 MEMB     170      CHL1     H20      HAL1     0.900000E-01   1.00800           0
      6116 MEMB     170      CHL1     C21      CTL3    -0.270000       12.0110           0
      6117 MEMB     170      CHL1     H21A     HAL3     0.900000E-01   1.00800           0
      6118 MEMB     170      CHL1     H21B     HAL3     0.900000E-01   1.00800           0
      6119 MEMB     170      CHL1     H21C     HAL3     0.900000E-01   1.00800           0
      6120 MEMB     170      CHL1     C22      CTL2    -0.180000       12.0110           0
      6121 MEMB     170      CHL1     H22A     HAL2     0.900000E-01   1.00800           0
      6122 MEMB     170      CHL1     H22B     HAL2     0.900000E-01   1.00800           0
      6123 MEMB     170      CHL1     C23      CTL2    -0.180000       12.0110           0
      6124 MEMB     170      CHL1     H23A     HAL2     0.900000E-01   1.00800           0
      6125 MEMB     170      CHL1     H23B     HAL2     0.900000E-01   1.00800           0
      6126 MEMB     170      CHL1     C24      CTL2    -0.180000       12.0110           0
      6127 MEMB     170      CHL1     H24A     HAL2     0.900000E-01   1.00800           0
      6128 MEMB     170      CHL1     H24B     HAL2     0.900000E-01   1.00800           0
      6129 MEMB     170      CHL1     C25      CTL1    -0.900000E-01   12.0110           0
      6130 MEMB     170      CHL1     H25      HAL1     0.900000E-01   1.00800           0
      6131 MEMB     170      CHL1     C26      CTL3    -0.270000       12.0110           0
      6132 MEMB     170      CHL1     H26A     HAL3     0.900000E-01   1.00800           0
      6133 MEMB     170      CHL1     H26B     HAL3     0.900000E-01   1.00800           0
      6134 MEMB     170      CHL1     H26C     HAL3     0.900000E-01   1.00800           0
      6135 MEMB     170      CHL1     C27      CTL3    -0.270000       12.0110           0
      6136 MEMB     170      CHL1     H27A     HAL3     0.900000E-01   1.00800           0
      6137 MEMB     170      CHL1     H27B     HAL3     0.900000E-01   1.00800           0
      6138 MEMB     170      CHL1     H27C     HAL3     0.900000E-01   1.00800           0
      6139 MEMB     171      CHL1     C3       CRL1     0.140000       12.0110           0
      6140 MEMB     171      CHL1     H3       HGA1     0.900000E-01   1.00800           0
      6141 MEMB     171      CHL1     O3       OHL     -0.660000       15.9994           0
      6142 MEMB     171      CHL1     H3'      HOL      0.430000       1.00800           0
      6143 MEMB     171      CHL1     C4       CRL2    -0.180000       12.0110           0
      6144 MEMB     171      CHL1     H4A      HGA2     0.900000E-01   1.00800           0
      6145 MEMB     171      CHL1     H4B      HGA2     0.900000E-01   1.00800           0
      6146 MEMB     171      CHL1     C5       CEL1     0.000000       12.0110           0
      6147 MEMB     171      CHL1     C6       CEL1    -0.150000       12.0110           0
      6148 MEMB     171      CHL1     H6       HEL1     0.150000       1.00800           0
      6149 MEMB     171      CHL1     C7       CRL2    -0.180000       12.0110           0
      6150 MEMB     171      CHL1     H7A      HGA2     0.900000E-01   1.00800           0
      6151 MEMB     171      CHL1     H7B      HGA2     0.900000E-01   1.00800           0
      6152 MEMB     171      CHL1     C8       CRL1    -0.900000E-01   12.0110           0
      6153 MEMB     171      CHL1     H8       HGA1     0.900000E-01   1.00800           0
      6154 MEMB     171      CHL1     C14      CRL1    -0.900000E-01   12.0110           0
      6155 MEMB     171      CHL1     H14      HGA1     0.900000E-01   1.00800           0
      6156 MEMB     171      CHL1     C15      CRL2    -0.180000       12.0110           0
      6157 MEMB     171      CHL1     H15A     HGA2     0.900000E-01   1.00800           0
      6158 MEMB     171      CHL1     H15B     HGA2     0.900000E-01   1.00800           0
      6159 MEMB     171      CHL1     C16      CRL2    -0.180000       12.0110           0
      6160 MEMB     171      CHL1     H16A     HGA2     0.900000E-01   1.00800           0
      6161 MEMB     171      CHL1     H16B     HGA2     0.900000E-01   1.00800           0
      6162 MEMB     171      CHL1     C17      CRL1    -0.900000E-01   12.0110           0
      6163 MEMB     171      CHL1     H17      HGA1     0.900000E-01   1.00800           0
      6164 MEMB     171      CHL1     C13      CRL1     0.000000       12.0110           0
      6165 MEMB     171      CHL1     C18      CTL3    -0.270000       12.0110           0
      6166 MEMB     171      CHL1     H18A     HAL3     0.900000E-01   1.00800           0
      6167 MEMB     171      CHL1     H18B     HAL3     0.900000E-01   1.00800           0
      6168 MEMB     171      CHL1     H18C     HAL3     0.900000E-01   1.00800           0
      6169 MEMB     171      CHL1     C12      CRL2    -0.180000       12.0110           0
      6170 MEMB     171      CHL1     H12A     HGA2     0.900000E-01   1.00800           0
      6171 MEMB     171      CHL1     H12B     HGA2     0.900000E-01   1.00800           0
      6172 MEMB     171      CHL1     C11      CRL2    -0.180000       12.0110           0
      6173 MEMB     171      CHL1     H11A     HGA2     0.900000E-01   1.00800           0
      6174 MEMB     171      CHL1     H11B     HGA2     0.900000E-01   1.00800           0
      6175 MEMB     171      CHL1     C9       CRL1    -0.900000E-01   12.0110           0
      6176 MEMB     171      CHL1     H9       HGA1     0.900000E-01   1.00800           0
      6177 MEMB     171      CHL1     C10      CRL1     0.000000       12.0110           0
      6178 MEMB     171      CHL1     C19      CTL3    -0.270000       12.0110           0
      6179 MEMB     171      CHL1     H19A     HAL3     0.900000E-01   1.00800           0
      6180 MEMB     171      CHL1     H19B     HAL3     0.900000E-01   1.00800           0
      6181 MEMB     171      CHL1     H19C     HAL3     0.900000E-01   1.00800           0
      6182 MEMB     171      CHL1     C1       CRL2    -0.180000       12.0110           0
      6183 MEMB     171      CHL1     H1A      HGA2     0.900000E-01   1.00800           0
      6184 MEMB     171      CHL1     H1B      HGA2     0.900000E-01   1.00800           0
      6185 MEMB     171      CHL1     C2       CRL2    -0.180000       12.0110           0
      6186 MEMB     171      CHL1     H2A      HGA2     0.900000E-01   1.00800           0
      6187 MEMB     171      CHL1     H2B      HGA2     0.900000E-01   1.00800           0
      6188 MEMB     171      CHL1     C20      CTL1    -0.900000E-01   12.0110           0
      6189 MEMB     171      CHL1     H20      HAL1     0.900000E-01   1.00800           0
      6190 MEMB     171      CHL1     C21      CTL3    -0.270000       12.0110           0
      6191 MEMB     171      CHL1     H21A     HAL3     0.900000E-01   1.00800           0
      6192 MEMB     171      CHL1     H21B     HAL3     0.900000E-01   1.00800           0
      6193 MEMB     171      CHL1     H21C     HAL3     0.900000E-01   1.00800           0
      6194 MEMB     171      CHL1     C22      CTL2    -0.180000       12.0110           0
      6195 MEMB     171      CHL1     H22A     HAL2     0.900000E-01   1.00800           0
      6196 MEMB     171      CHL1     H22B     HAL2     0.900000E-01   1.00800           0
      6197 MEMB     171      CHL1     C23      CTL2    -0.180000       12.0110           0
      6198 MEMB     171      CHL1     H23A     HAL2     0.900000E-01   1.00800           0
      6199 MEMB     171      CHL1     H23B     HAL2     0.900000E-01   1.00800           0
      6200 MEMB     171      CHL1     C24      CTL2    -0.180000       12.0110           0
      6201 MEMB     171      CHL1     H24A     HAL2     0.900000E-01   1.00800           0
      6202 MEMB     171      CHL1     H24B     HAL2     0.900000E-01   1.00800           0
      6203 MEMB     171      CHL1     C25      CTL1    -0.900000E-01   12.0110           0
      6204 MEMB     171      CHL1     H25      HAL1     0.900000E-01   1.00800           0
      6205 MEMB     171      CHL1     C26      CTL3    -0.270000       12.0110           0
      6206 MEMB     171      CHL1     H26A     HAL3     0.900000E-01   1.00800           0
      6207 MEMB     171      CHL1     H26B     HAL3     0.900000E-01   1.00800           0
      6208 MEMB     171      CHL1     H26C     HAL3     0.900000E-01   1.00800           0
      6209 MEMB     171      CHL1     C27      CTL3    -0.270000       12.0110           0
      6210 MEMB     171      CHL1     H27A     HAL3     0.900000E-01   1.00800           0
      6211 MEMB     171      CHL1     H27B     HAL3     0.900000E-01   1.00800           0
      6212 MEMB     171      CHL1     H27C     HAL3     0.900000E-01   1.00800           0
      6213 MEMB     173      CHL1     C3       CRL1     0.140000       12.0110           0
      6214 MEMB     173      CHL1     H3       HGA1     0.900000E-01   1.00800           0
      6215 MEMB     173      CHL1     O3       OHL     -0.660000       15.9994           0
      6216 MEMB     173      CHL1     H3'      HOL      0.430000       1.00800           0
      6217 MEMB     173      CHL1     C4       CRL2    -0.180000       12.0110           0
      6218 MEMB     173      CHL1     H4A      HGA2     0.900000E-01   1.00800           0
      6219 MEMB     173      CHL1     H4B      HGA2     0.900000E-01   1.00800           0
      6220 MEMB     173      CHL1     C5       CEL1     0.000000       12.0110           0
      6221 MEMB     173      CHL1     C6       CEL1    -0.150000       12.0110           0
      6222 MEMB     173      CHL1     H6       HEL1     0.150000       1.00800           0
      6223 MEMB     173      CHL1     C7       CRL2    -0.180000       12.0110           0
      6224 MEMB     173      CHL1     H7A      HGA2     0.900000E-01   1.00800           0
      6225 MEMB     173      CHL1     H7B      HGA2     0.900000E-01   1.00800           0
      6226 MEMB     173      CHL1     C8       CRL1    -0.900000E-01   12.0110           0
      6227 MEMB     173      CHL1     H8       HGA1     0.900000E-01   1.00800           0
      6228 MEMB     173      CHL1     C14      CRL1    -0.900000E-01   12.0110           0
      6229 MEMB     173      CHL1     H14      HGA1     0.900000E-01   1.00800           0
      6230 MEMB     173      CHL1     C15      CRL2    -0.180000       12.0110           0
      6231 MEMB     173      CHL1     H15A     HGA2     0.900000E-01   1.00800           0
      6232 MEMB     173      CHL1     H15B     HGA2     0.900000E-01   1.00800           0
      6233 MEMB     173      CHL1     C16      CRL2    -0.180000       12.0110           0
      6234 MEMB     173      CHL1     H16A     HGA2     0.900000E-01   1.00800           0
      6235 MEMB     173      CHL1     H16B     HGA2     0.900000E-01   1.00800           0
      6236 MEMB     173      CHL1     C17      CRL1    -0.900000E-01   12.0110           0
      6237 MEMB     173      CHL1     H17      HGA1     0.900000E-01   1.00800           0
      6238 MEMB     173      CHL1     C13      CRL1     0.000000       12.0110           0
      6239 MEMB     173      CHL1     C18      CTL3    -0.270000       12.0110           0
      6240 MEMB     173      CHL1     H18A     HAL3     0.900000E-01   1.00800           0
      6241 MEMB     173      CHL1     H18B     HAL3     0.900000E-01   1.00800           0
      6242 MEMB     173      CHL1     H18C     HAL3     0.900000E-01   1.00800           0
      6243 MEMB     173      CHL1     C12      CRL2    -0.180000       12.0110           0
      6244 MEMB     173      CHL1     H12A     HGA2     0.900000E-01   1.00800           0
      6245 MEMB     173      CHL1     H12B     HGA2     0.900000E-01   1.00800           0
      6246 MEMB     173      CHL1     C11      CRL2    -0.180000       12.0110           0
      6247 MEMB     173      CHL1     H11A     HGA2     0.900000E-01   1.00800           0
      6248 MEMB     173      CHL1     H11B     HGA2     0.900000E-01   1.00800           0
      6249 MEMB     173      CHL1     C9       CRL1    -0.900000E-01   12.0110           0
      6250 MEMB     173      CHL1     H9       HGA1     0.900000E-01   1.00800           0
      6251 MEMB     173      CHL1     C10      CRL1     0.000000       12.0110           0
      6252 MEMB     173      CHL1     C19      CTL3    -0.270000       12.0110           0
      6253 MEMB     173      CHL1     H19A     HAL3     0.900000E-01   1.00800           0
      6254 MEMB     173      CHL1     H19B     HAL3     0.900000E-01   1.00800           0
      6255 MEMB     173      CHL1     H19C     HAL3     0.900000E-01   1.00800           0
      6256 MEMB     173      CHL1     C1       CRL2    -0.180000       12.0110           0
      6257 MEMB     173      CHL1     H1A      HGA2     0.900000E-01   1.00800           0
      6258 MEMB     173      CHL1     H1B      HGA2     0.900000E-01   1.00800           0
      6259 MEMB     173      CHL1     C2       CRL2    -0.180000       12.0110           0
      6260 MEMB     173      CHL1     H2A      HGA2     0.900000E-01   1.00800           0
      6261 MEMB     173      CHL1     H2B      HGA2     0.900000E-01   1.00800           0
      6262 MEMB     173      CHL1     C20      CTL1    -0.900000E-01   12.0110           0
      6263 MEMB     173      CHL1     H20      HAL1     0.900000E-01   1.00800           0
      6264 MEMB     173      CHL1     C21      CTL3    -0.270000       12.0110           0
      6265 MEMB     173      CHL1     H21A     HAL3     0.900000E-01   1.00800           0
      6266 MEMB     173      CHL1     H21B     HAL3     0.900000E-01   1.00800           0
      6267 MEMB     173      CHL1     H21C     HAL3     0.900000E-01   1.00800           0
      6268 MEMB     173      CHL1     C22      CTL2    -0.180000       12.0110           0
      6269 MEMB     173      CHL1     H22A     HAL2     0.900000E-01   1.00800           0
      6270 MEMB     173      CHL1     H22B     HAL2     0.900000E-01   1.00800           0
      6271 MEMB     173      CHL1     C23      CTL2    -0.180000       12.0110           0
      6272 MEMB     173      CHL1     H23A     HAL2     0.900000E-01   1.00800           0
      6273 MEMB     173      CHL1     H23B     HAL2     0.900000E-01   1.00800           0
      6274 MEMB     173      CHL1     C24      CTL2    -0.180000       12.0110           0
      6275 MEMB     173      CHL1     H24A     HAL2     0.900000E-01   1.00800           0
      6276 MEMB     173      CHL1     H24B     HAL2     0.900000E-01   1.00800           0
      6277 MEMB     173      CHL1     C25      CTL1    -0.900000E-01   12.0110           0
      6278 MEMB     173      CHL1     H25      HAL1     0.900000E-01   1.00800           0
      6279 MEMB     173      CHL1     C26      CTL3    -0.270000       12.0110           0
      6280 MEMB     173      CHL1     H26A     HAL3     0.900000E-01   1.00800           0
      6281 MEMB     173      CHL1     H26B     HAL3     0.900000E-01   1.00800           0
      6282 MEMB     173      CHL1     H26C     HAL3     0.900000E-01   1.00800           0
      6283 MEMB     173      CHL1     C27      CTL3    -0.270000       12.0110           0
      6284 MEMB     173      CHL1     H27A     HAL3     0.900000E-01   1.00800           0
      6285 MEMB     173      CHL1     H27B     HAL3     0.900000E-01   1.00800           0
      6286 MEMB     173      CHL1     H27C     HAL3     0.900000E-01   1.00800           0
      6287 MEMB     175      CHL1     C3       CRL1     0.140000       12.0110           0
      6288 MEMB     175      CHL1     H3       HGA1     0.900000E-01   1.00800           0
      6289 MEMB     175      CHL1     O3       OHL     -0.660000       15.9994           0
      6290 MEMB     175      CHL1     H3'      HOL      0.430000       1.00800           0
      6291 MEMB     175      CHL1     C4       CRL2    -0.180000       12.0110           0
      6292 MEMB     175      CHL1     H4A      HGA2     0.900000E-01   1.00800           0
      6293 MEMB     175      CHL1     H4B      HGA2     0.900000E-01   1.00800           0
      6294 MEMB     175      CHL1     C5       CEL1     0.000000       12.0110           0
      6295 MEMB     175      CHL1     C6       CEL1    -0.150000       12.0110           0
      6296 MEMB     175      CHL1     H6       HEL1     0.150000       1.00800           0
      6297 MEMB     175      CHL1     C7       CRL2    -0.180000       12.0110           0
      6298 MEMB     175      CHL1     H7A      HGA2     0.900000E-01   1.00800           0
      6299 MEMB     175      CHL1     H7B      HGA2     0.900000E-01   1.00800           0
      6300 MEMB     175      CHL1     C8       CRL1    -0.900000E-01   12.0110           0
      6301 MEMB     175      CHL1     H8       HGA1     0.900000E-01   1.00800           0
      6302 MEMB     175      CHL1     C14      CRL1    -0.900000E-01   12.0110           0
      6303 MEMB     175      CHL1     H14      HGA1     0.900000E-01   1.00800           0
      6304 MEMB     175      CHL1     C15      CRL2    -0.180000       12.0110           0
      6305 MEMB     175      CHL1     H15A     HGA2     0.900000E-01   1.00800           0
      6306 MEMB     175      CHL1     H15B     HGA2     0.900000E-01   1.00800           0
      6307 MEMB     175      CHL1     C16      CRL2    -0.180000       12.0110           0
      6308 MEMB     175      CHL1     H16A     HGA2     0.900000E-01   1.00800           0
      6309 MEMB     175      CHL1     H16B     HGA2     0.900000E-01   1.00800           0
      6310 MEMB     175      CHL1     C17      CRL1    -0.900000E-01   12.0110           0
      6311 MEMB     175      CHL1     H17      HGA1     0.900000E-01   1.00800           0
      6312 MEMB     175      CHL1     C13      CRL1     0.000000       12.0110           0
      6313 MEMB     175      CHL1     C18      CTL3    -0.270000       12.0110           0
      6314 MEMB     175      CHL1     H18A     HAL3     0.900000E-01   1.00800           0
      6315 MEMB     175      CHL1     H18B     HAL3     0.900000E-01   1.00800           0
      6316 MEMB     175      CHL1     H18C     HAL3     0.900000E-01   1.00800           0
      6317 MEMB     175      CHL1     C12      CRL2    -0.180000       12.0110           0
      6318 MEMB     175      CHL1     H12A     HGA2     0.900000E-01   1.00800           0
      6319 MEMB     175      CHL1     H12B     HGA2     0.900000E-01   1.00800           0
      6320 MEMB     175      CHL1     C11      CRL2    -0.180000       12.0110           0
      6321 MEMB     175      CHL1     H11A     HGA2     0.900000E-01   1.00800           0
      6322 MEMB     175      CHL1     H11B     HGA2     0.900000E-01   1.00800           0
      6323 MEMB     175      CHL1     C9       CRL1    -0.900000E-01   12.0110           0
      6324 MEMB     175      CHL1     H9       HGA1     0.900000E-01   1.00800           0
      6325 MEMB     175      CHL1     C10      CRL1     0.000000       12.0110           0
      6326 MEMB     175      CHL1     C19      CTL3    -0.270000       12.0110           0
      6327 MEMB     175      CHL1     H19A     HAL3     0.900000E-01   1.00800           0
      6328 MEMB     175      CHL1     H19B     HAL3     0.900000E-01   1.00800           0
      6329 MEMB     175      CHL1     H19C     HAL3     0.900000E-01   1.00800           0
      6330 MEMB     175      CHL1     C1       CRL2    -0.180000       12.0110           0
      6331 MEMB     175      CHL1     H1A      HGA2     0.900000E-01   1.00800           0
      6332 MEMB     175      CHL1     H1B      HGA2     0.900000E-01   1.00800           0
      6333 MEMB     175      CHL1     C2       CRL2    -0.180000       12.0110           0
      6334 MEMB     175      CHL1     H2A      HGA2     0.900000E-01   1.00800           0
      6335 MEMB     175      CHL1     H2B      HGA2     0.900000E-01   1.00800           0
      6336 MEMB     175      CHL1     C20      CTL1    -0.900000E-01   12.0110           0
      6337 MEMB     175      CHL1     H20      HAL1     0.900000E-01   1.00800           0
      6338 MEMB     175      CHL1     C21      CTL3    -0.270000       12.0110           0
      6339 MEMB     175      CHL1     H21A     HAL3     0.900000E-01   1.00800           0
      6340 MEMB     175      CHL1     H21B     HAL3     0.900000E-01   1.00800           0
      6341 MEMB     175      CHL1     H21C     HAL3     0.900000E-01   1.00800           0
      6342 MEMB     175      CHL1     C22      CTL2    -0.180000       12.0110           0
      6343 MEMB     175      CHL1     H22A     HAL2     0.900000E-01   1.00800           0
      6344 MEMB     175      CHL1     H22B     HAL2     0.900000E-01   1.00800           0
      6345 MEMB     175      CHL1     C23      CTL2    -0.180000       12.0110           0
      6346 MEMB     175      CHL1     H23A     HAL2     0.900000E-01   1.00800           0
      6347 MEMB     175      CHL1     H23B     HAL2     0.900000E-01   1.00800           0
      6348 MEMB     175      CHL1     C24      CTL2    -0.180000       12.0110           0
      6349 MEMB     175      CHL1     H24A     HAL2     0.900000E-01   1.00800           0
      6350 MEMB     175      CHL1     H24B     HAL2     0.900000E-01   1.00800           0
      6351 MEMB     175      CHL1     C25      CTL1    -0.900000E-01   12.0110           0
      6352 MEMB     175      CHL1     H25      HAL1     0.900000E-01   1.00800           0
      6353 MEMB     175      CHL1     C26      CTL3    -0.270000       12.0110           0
      6354 MEMB     175      CHL1     H26A     HAL3     0.900000E-01   1.00800           0
      6355 MEMB     175      CHL1     H26B     HAL3     0.900000E-01   1.00800           0
      6356 MEMB     175      CHL1     H26C     HAL3     0.900000E-01   1.00800           0
      6357 MEMB     175      CHL1     C27      CTL3    -0.270000       12.0110           0
      6358 MEMB     175      CHL1     H27A     HAL3     0.900000E-01   1.00800           0
      6359 MEMB     175      CHL1     H27B     HAL3     0.900000E-01   1.00800           0
      6360 MEMB     175      CHL1     H27C     HAL3     0.900000E-01   1.00800           0
      6361 MEMB     176      CHL1     C3       CRL1     0.140000       12.0110           0
      6362 MEMB     176      CHL1     H3       HGA1     0.900000E-01   1.00800           0
      6363 MEMB     176      CHL1     O3       OHL     -0.660000       15.9994           0
      6364 MEMB     176      CHL1     H3'      HOL      0.430000       1.00800           0
      6365 MEMB     176      CHL1     C4       CRL2    -0.180000       12.0110           0
      6366 MEMB     176      CHL1     H4A      HGA2     0.900000E-01   1.00800           0
      6367 MEMB     176      CHL1     H4B      HGA2     0.900000E-01   1.00800           0
      6368 MEMB     176      CHL1     C5       CEL1     0.000000       12.0110           0
      6369 MEMB     176      CHL1     C6       CEL1    -0.150000       12.0110           0
      6370 MEMB     176      CHL1     H6       HEL1     0.150000       1.00800           0
      6371 MEMB     176      CHL1     C7       CRL2    -0.180000       12.0110           0
      6372 MEMB     176      CHL1     H7A      HGA2     0.900000E-01   1.00800           0
      6373 MEMB     176      CHL1     H7B      HGA2     0.900000E-01   1.00800           0
      6374 MEMB     176      CHL1     C8       CRL1    -0.900000E-01   12.0110           0
      6375 MEMB     176      CHL1     H8       HGA1     0.900000E-01   1.00800           0
      6376 MEMB     176      CHL1     C14      CRL1    -0.900000E-01   12.0110           0
      6377 MEMB     176      CHL1     H14      HGA1     0.900000E-01   1.00800           0
      6378 MEMB     176      CHL1     C15      CRL2    -0.180000       12.0110           0
      6379 MEMB     176      CHL1     H15A     HGA2     0.900000E-01   1.00800           0
      6380 MEMB     176      CHL1     H15B     HGA2     0.900000E-01   1.00800           0
      6381 MEMB     176      CHL1     C16      CRL2    -0.180000       12.0110           0
      6382 MEMB     176      CHL1     H16A     HGA2     0.900000E-01   1.00800           0
      6383 MEMB     176      CHL1     H16B     HGA2     0.900000E-01   1.00800           0
      6384 MEMB     176      CHL1     C17      CRL1    -0.900000E-01   12.0110           0
      6385 MEMB     176      CHL1     H17      HGA1     0.900000E-01   1.00800           0
      6386 MEMB     176      CHL1     C13      CRL1     0.000000       12.0110           0
      6387 MEMB     176      CHL1     C18      CTL3    -0.270000       12.0110           0
      6388 MEMB     176      CHL1     H18A     HAL3     0.900000E-01   1.00800           0
      6389 MEMB     176      CHL1     H18B     HAL3     0.900000E-01   1.00800           0
      6390 MEMB     176      CHL1     H18C     HAL3     0.900000E-01   1.00800           0
      6391 MEMB     176      CHL1     C12      CRL2    -0.180000       12.0110           0
      6392 MEMB     176      CHL1     H12A     HGA2     0.900000E-01   1.00800           0
      6393 MEMB     176      CHL1     H12B     HGA2     0.900000E-01   1.00800           0
      6394 MEMB     176      CHL1     C11      CRL2    -0.180000       12.0110           0
      6395 MEMB     176      CHL1     H11A     HGA2     0.900000E-01   1.00800           0
      6396 MEMB     176      CHL1     H11B     HGA2     0.900000E-01   1.00800           0
      6397 MEMB     176      CHL1     C9       CRL1    -0.900000E-01   12.0110           0
      6398 MEMB     176      CHL1     H9       HGA1     0.900000E-01   1.00800           0
      6399 MEMB     176      CHL1     C10      CRL1     0.000000       12.0110           0
      6400 MEMB     176      CHL1     C19      CTL3    -0.270000       12.0110           0
      6401 MEMB     176      CHL1     H19A     HAL3     0.900000E-01   1.00800           0
      6402 MEMB     176      CHL1     H19B     HAL3     0.900000E-01   1.00800           0
      6403 MEMB     176      CHL1     H19C     HAL3     0.900000E-01   1.00800           0
      6404 MEMB     176      CHL1     C1       CRL2    -0.180000       12.0110           0
      6405 MEMB     176      CHL1     H1A      HGA2     0.900000E-01   1.00800           0
      6406 MEMB     176      CHL1     H1B      HGA2     0.900000E-01   1.00800           0
      6407 MEMB     176      CHL1     C2       CRL2    -0.180000       12.0110           0
      6408 MEMB     176      CHL1     H2A      HGA2     0.900000E-01   1.00800           0
      6409 MEMB     176      CHL1     H2B      HGA2     0.900000E-01   1.00800           0
      6410 MEMB     176      CHL1     C20      CTL1    -0.900000E-01   12.0110           0
      6411 MEMB     176      CHL1     H20      HAL1     0.900000E-01   1.00800           0
      6412 MEMB     176      CHL1     C21      CTL3    -0.270000       12.0110           0
      6413 MEMB     176      CHL1     H21A     HAL3     0.900000E-01   1.00800           0
      6414 MEMB     176      CHL1     H21B     HAL3     0.900000E-01   1.00800           0
      6415 MEMB     176      CHL1     H21C     HAL3     0.900000E-01   1.00800           0
      6416 MEMB     176      CHL1     C22      CTL2    -0.180000       12.0110           0
      6417 MEMB     176      CHL1     H22A     HAL2     0.900000E-01   1.00800           0
      6418 MEMB     176      CHL1     H22B     HAL2     0.900000E-01   1.00800           0
      6419 MEMB     176      CHL1     C23      CTL2    -0.180000       12.0110           0
      6420 MEMB     176      CHL1     H23A     HAL2     0.900000E-01   1.00800           0
      6421 MEMB     176      CHL1     H23B     HAL2     0.900000E-01   1.00800           0
      6422 MEMB     176      CHL1     C24      CTL2    -0.180000       12.0110           0
      6423 MEMB     176      CHL1     H24A     HAL2     0.900000E-01   1.00800           0
      6424 MEMB     176      CHL1     H24B     HAL2     0.900000E-01   1.00800           0
      6425 MEMB     176      CHL1     C25      CTL1    -0.900000E-01   12.0110           0
      6426 MEMB     176      CHL1     H25      HAL1     0.900000E-01   1.00800           0
      6427 MEMB     176      CHL1     C26      CTL3    -0.270000       12.0110           0
      6428 MEMB     176      CHL1     H26A     HAL3     0.900000E-01   1.00800           0
      6429 MEMB     176      CHL1     H26B     HAL3     0.900000E-01   1.00800           0
      6430 MEMB     176      CHL1     H26C     HAL3     0.900000E-01   1.00800           0
      6431 MEMB     176      CHL1     C27      CTL3    -0.270000       12.0110           0
      6432 MEMB     176      CHL1     H27A     HAL3     0.900000E-01   1.00800           0
      6433 MEMB     176      CHL1     H27B     HAL3     0.900000E-01   1.00800           0
      6434 MEMB     176      CHL1     H27C     HAL3     0.900000E-01   1.00800           0
      6435 MEMB     179      CHL1     C3       CRL1     0.140000       12.0110           0
      6436 MEMB     179      CHL1     H3       HGA1     0.900000E-01   1.00800           0
      6437 MEMB     179      CHL1     O3       OHL     -0.660000       15.9994           0
      6438 MEMB     179      CHL1     H3'      HOL      0.430000       1.00800           0
      6439 MEMB     179      CHL1     C4       CRL2    -0.180000       12.0110           0
      6440 MEMB     179      CHL1     H4A      HGA2     0.900000E-01   1.00800           0
      6441 MEMB     179      CHL1     H4B      HGA2     0.900000E-01   1.00800           0
      6442 MEMB     179      CHL1     C5       CEL1     0.000000       12.0110           0
      6443 MEMB     179      CHL1     C6       CEL1    -0.150000       12.0110           0
      6444 MEMB     179      CHL1     H6       HEL1     0.150000       1.00800           0
      6445 MEMB     179      CHL1     C7       CRL2    -0.180000       12.0110           0
      6446 MEMB     179      CHL1     H7A      HGA2     0.900000E-01   1.00800           0
      6447 MEMB     179      CHL1     H7B      HGA2     0.900000E-01   1.00800           0
      6448 MEMB     179      CHL1     C8       CRL1    -0.900000E-01   12.0110           0
      6449 MEMB     179      CHL1     H8       HGA1     0.900000E-01   1.00800           0
      6450 MEMB     179      CHL1     C14      CRL1    -0.900000E-01   12.0110           0
      6451 MEMB     179      CHL1     H14      HGA1     0.900000E-01   1.00800           0
      6452 MEMB     179      CHL1     C15      CRL2    -0.180000       12.0110           0
      6453 MEMB     179      CHL1     H15A     HGA2     0.900000E-01   1.00800           0
      6454 MEMB     179      CHL1     H15B     HGA2     0.900000E-01   1.00800           0
      6455 MEMB     179      CHL1     C16      CRL2    -0.180000       12.0110           0
      6456 MEMB     179      CHL1     H16A     HGA2     0.900000E-01   1.00800           0
      6457 MEMB     179      CHL1     H16B     HGA2     0.900000E-01   1.00800           0
      6458 MEMB     179      CHL1     C17      CRL1    -0.900000E-01   12.0110           0
      6459 MEMB     179      CHL1     H17      HGA1     0.900000E-01   1.00800           0
      6460 MEMB     179      CHL1     C13      CRL1     0.000000       12.0110           0
      6461 MEMB     179      CHL1     C18      CTL3    -0.270000       12.0110           0
      6462 MEMB     179      CHL1     H18A     HAL3     0.900000E-01   1.00800           0
      6463 MEMB     179      CHL1     H18B     HAL3     0.900000E-01   1.00800           0
      6464 MEMB     179      CHL1     H18C     HAL3     0.900000E-01   1.00800           0
      6465 MEMB     179      CHL1     C12      CRL2    -0.180000       12.0110           0
      6466 MEMB     179      CHL1     H12A     HGA2     0.900000E-01   1.00800           0
      6467 MEMB     179      CHL1     H12B     HGA2     0.900000E-01   1.00800           0
      6468 MEMB     179      CHL1     C11      CRL2    -0.180000       12.0110           0
      6469 MEMB     179      CHL1     H11A     HGA2     0.900000E-01   1.00800           0
      6470 MEMB     179      CHL1     H11B     HGA2     0.900000E-01   1.00800           0
      6471 MEMB     179      CHL1     C9       CRL1    -0.900000E-01   12.0110           0
      6472 MEMB     179      CHL1     H9       HGA1     0.900000E-01   1.00800           0
      6473 MEMB     179      CHL1     C10      CRL1     0.000000       12.0110           0
      6474 MEMB     179      CHL1     C19      CTL3    -0.270000       12.0110           0
      6475 MEMB     179      CHL1     H19A     HAL3     0.900000E-01   1.00800           0
      6476 MEMB     179      CHL1     H19B     HAL3     0.900000E-01   1.00800           0
      6477 MEMB     179      CHL1     H19C     HAL3     0.900000E-01   1.00800           0
      6478 MEMB     179      CHL1     C1       CRL2    -0.180000       12.0110           0
      6479 MEMB     179      CHL1     H1A      HGA2     0.900000E-01   1.00800           0
      6480 MEMB     179      CHL1     H1B      HGA2     0.900000E-01   1.00800           0
      6481 MEMB     179      CHL1     C2       CRL2    -0.180000       12.0110           0
      6482 MEMB     179      CHL1     H2A      HGA2     0.900000E-01   1.00800           0
      6483 MEMB     179      CHL1     H2B      HGA2     0.900000E-01   1.00800           0
      6484 MEMB     179      CHL1     C20      CTL1    -0.900000E-01   12.0110           0
      6485 MEMB     179      CHL1     H20      HAL1     0.900000E-01   1.00800           0
      6486 MEMB     179      CHL1     C21      CTL3    -0.270000       12.0110           0
      6487 MEMB     179      CHL1     H21A     HAL3     0.900000E-01   1.00800           0
      6488 MEMB     179      CHL1     H21B     HAL3     0.900000E-01   1.00800           0
      6489 MEMB     179      CHL1     H21C     HAL3     0.900000E-01   1.00800           0
      6490 MEMB     179      CHL1     C22      CTL2    -0.180000       12.0110           0
      6491 MEMB     179      CHL1     H22A     HAL2     0.900000E-01   1.00800           0
      6492 MEMB     179      CHL1     H22B     HAL2     0.900000E-01   1.00800           0
      6493 MEMB     179      CHL1     C23      CTL2    -0.180000       12.0110           0
      6494 MEMB     179      CHL1     H23A     HAL2     0.900000E-01   1.00800           0
      6495 MEMB     179      CHL1     H23B     HAL2     0.900000E-01   1.00800           0
      6496 MEMB     179      CHL1     C24      CTL2    -0.180000       12.0110           0
      6497 MEMB     179      CHL1     H24A     HAL2     0.900000E-01   1.00800           0
      6498 MEMB     179      CHL1     H24B     HAL2     0.900000E-01   1.00800           0
      6499 MEMB     179      CHL1     C25      CTL1    -0.900000E-01   12.0110           0
      6500 MEMB     179      CHL1     H25      HAL1     0.900000E-01   1.00800           0
      6501 MEMB     179      CHL1     C26      CTL3    -0.270000       12.0110           0
      6502 MEMB     179      CHL1     H26A     HAL3     0.900000E-01   1.00800           0
      6503 MEMB     179      CHL1     H26B     HAL3     0.900000E-01   1.00800           0
      6504 MEMB     179      CHL1     H26C     HAL3     0.900000E-01   1.00800           0
      6505 MEMB     179      CHL1     C27      CTL3    -0.270000       12.0110           0
      6506 MEMB     179      CHL1     H27A     HAL3     0.900000E-01   1.00800           0
      6507 MEMB     179      CHL1     H27B     HAL3     0.900000E-01   1.00800           0
      6508 MEMB     179      CHL1     H27C     HAL3     0.900000E-01   1.00800           0
      6509 MEMB     183      CHL1     C3       CRL1     0.140000       12.0110           0
      6510 MEMB     183      CHL1     H3       HGA1     0.900000E-01   1.00800           0
      6511 MEMB     183      CHL1     O3       OHL     -0.660000       15.9994           0
      6512 MEMB     183      CHL1     H3'      HOL      0.430000       1.00800           0
      6513 MEMB     183      CHL1     C4       CRL2    -0.180000       12.0110           0
      6514 MEMB     183      CHL1     H4A      HGA2     0.900000E-01   1.00800           0
      6515 MEMB     183      CHL1     H4B      HGA2     0.900000E-01   1.00800           0
      6516 MEMB     183      CHL1     C5       CEL1     0.000000       12.0110           0
      6517 MEMB     183      CHL1     C6       CEL1    -0.150000       12.0110           0
      6518 MEMB     183      CHL1     H6       HEL1     0.150000       1.00800           0
      6519 MEMB     183      CHL1     C7       CRL2    -0.180000       12.0110           0
      6520 MEMB     183      CHL1     H7A      HGA2     0.900000E-01   1.00800           0
      6521 MEMB     183      CHL1     H7B      HGA2     0.900000E-01   1.00800           0
      6522 MEMB     183      CHL1     C8       CRL1    -0.900000E-01   12.0110           0
      6523 MEMB     183      CHL1     H8       HGA1     0.900000E-01   1.00800           0
      6524 MEMB     183      CHL1     C14      CRL1    -0.900000E-01   12.0110           0
      6525 MEMB     183      CHL1     H14      HGA1     0.900000E-01   1.00800           0
      6526 MEMB     183      CHL1     C15      CRL2    -0.180000       12.0110           0
      6527 MEMB     183      CHL1     H15A     HGA2     0.900000E-01   1.00800           0
      6528 MEMB     183      CHL1     H15B     HGA2     0.900000E-01   1.00800           0
      6529 MEMB     183      CHL1     C16      CRL2    -0.180000       12.0110           0
      6530 MEMB     183      CHL1     H16A     HGA2     0.900000E-01   1.00800           0
      6531 MEMB     183      CHL1     H16B     HGA2     0.900000E-01   1.00800           0
      6532 MEMB     183      CHL1     C17      CRL1    -0.900000E-01   12.0110           0
      6533 MEMB     183      CHL1     H17      HGA1     0.900000E-01   1.00800           0
      6534 MEMB     183      CHL1     C13      CRL1     0.000000       12.0110           0
      6535 MEMB     183      CHL1     C18      CTL3    -0.270000       12.0110           0
      6536 MEMB     183      CHL1     H18A     HAL3     0.900000E-01   1.00800           0
      6537 MEMB     183      CHL1     H18B     HAL3     0.900000E-01   1.00800           0
      6538 MEMB     183      CHL1     H18C     HAL3     0.900000E-01   1.00800           0
      6539 MEMB     183      CHL1     C12      CRL2    -0.180000       12.0110           0
      6540 MEMB     183      CHL1     H12A     HGA2     0.900000E-01   1.00800           0
      6541 MEMB     183      CHL1     H12B     HGA2     0.900000E-01   1.00800           0
      6542 MEMB     183      CHL1     C11      CRL2    -0.180000       12.0110           0
      6543 MEMB     183      CHL1     H11A     HGA2     0.900000E-01   1.00800           0
      6544 MEMB     183      CHL1     H11B     HGA2     0.900000E-01   1.00800           0
      6545 MEMB     183      CHL1     C9       CRL1    -0.900000E-01   12.0110           0
      6546 MEMB     183      CHL1     H9       HGA1     0.900000E-01   1.00800           0
      6547 MEMB     183      CHL1     C10      CRL1     0.000000       12.0110           0
      6548 MEMB     183      CHL1     C19      CTL3    -0.270000       12.0110           0
      6549 MEMB     183      CHL1     H19A     HAL3     0.900000E-01   1.00800           0
      6550 MEMB     183      CHL1     H19B     HAL3     0.900000E-01   1.00800           0
      6551 MEMB     183      CHL1     H19C     HAL3     0.900000E-01   1.00800           0
      6552 MEMB     183      CHL1     C1       CRL2    -0.180000       12.0110           0
      6553 MEMB     183      CHL1     H1A      HGA2     0.900000E-01   1.00800           0
      6554 MEMB     183      CHL1     H1B      HGA2     0.900000E-01   1.00800           0
      6555 MEMB     183      CHL1     C2       CRL2    -0.180000       12.0110           0
      6556 MEMB     183      CHL1     H2A      HGA2     0.900000E-01   1.00800           0
      6557 MEMB     183      CHL1     H2B      HGA2     0.900000E-01   1.00800           0
      6558 MEMB     183      CHL1     C20      CTL1    -0.900000E-01   12.0110           0
      6559 MEMB     183      CHL1     H20      HAL1     0.900000E-01   1.00800           0
      6560 MEMB     183      CHL1     C21      CTL3    -0.270000       12.0110           0
      6561 MEMB     183      CHL1     H21A     HAL3     0.900000E-01   1.00800           0
      6562 MEMB     183      CHL1     H21B     HAL3     0.900000E-01   1.00800           0
      6563 MEMB     183      CHL1     H21C     HAL3     0.900000E-01   1.00800           0
      6564 MEMB     183      CHL1     C22      CTL2    -0.180000       12.0110           0
      6565 MEMB     183      CHL1     H22A     HAL2     0.900000E-01   1.00800           0
      6566 MEMB     183      CHL1     H22B     HAL2     0.900000E-01   1.00800           0
      6567 MEMB     183      CHL1     C23      CTL2    -0.180000       12.0110           0
      6568 MEMB     183      CHL1     H23A     HAL2     0.900000E-01   1.00800           0
      6569 MEMB     183      CHL1     H23B     HAL2     0.900000E-01   1.00800           0
      6570 MEMB     183      CHL1     C24      CTL2    -0.180000       12.0110           0
      6571 MEMB     183      CHL1     H24A     HAL2     0.900000E-01   1.00800           0
      6572 MEMB     183      CHL1     H24B     HAL2     0.900000E-01   1.00800           0
      6573 MEMB     183      CHL1     C25      CTL1    -0.900000E-01   12.0110           0
      6574 MEMB     183      CHL1     H25      HAL1     0.900000E-01   1.00800           0
      6575 MEMB     183      CHL1     C26      CTL3    -0.270000       12.0110           0
      6576 MEMB     183      CHL1     H26A     HAL3     0.900000E-01   1.00800           0
      6577 MEMB     183      CHL1     H26B     HAL3     0.900000E-01   1.00800           0
      6578 MEMB     183      CHL1     H26C     HAL3     0.900000E-01   1.00800           0
      6579 MEMB     183      CHL1     C27      CTL3    -0.270000       12.0110           0
      6580 MEMB     183      CHL1     H27A     HAL3     0.900000E-01   1.00800           0
      6581 MEMB     183      CHL1     H27B     HAL3     0.900000E-01   1.00800           0
      6582 MEMB     183      CHL1     H27C     HAL3     0.900000E-01   1.00800           0
      6583 MEMB     187      CHL1     C3       CRL1     0.140000       12.0110           0
      6584 MEMB     187      CHL1     H3       HGA1     0.900000E-01   1.00800           0
      6585 MEMB     187      CHL1     O3       OHL     -0.660000       15.9994           0
      6586 MEMB     187      CHL1     H3'      HOL      0.430000       1.00800           0
      6587 MEMB     187      CHL1     C4       CRL2    -0.180000       12.0110           0
      6588 MEMB     187      CHL1     H4A      HGA2     0.900000E-01   1.00800           0
      6589 MEMB     187      CHL1     H4B      HGA2     0.900000E-01   1.00800           0
      6590 MEMB     187      CHL1     C5       CEL1     0.000000       12.0110           0
      6591 MEMB     187      CHL1     C6       CEL1    -0.150000       12.0110           0
      6592 MEMB     187      CHL1     H6       HEL1     0.150000       1.00800           0
      6593 MEMB     187      CHL1     C7       CRL2    -0.180000       12.0110           0
      6594 MEMB     187      CHL1     H7A      HGA2     0.900000E-01   1.00800           0
      6595 MEMB     187      CHL1     H7B      HGA2     0.900000E-01   1.00800           0
      6596 MEMB     187      CHL1     C8       CRL1    -0.900000E-01   12.0110           0
      6597 MEMB     187      CHL1     H8       HGA1     0.900000E-01   1.00800           0
      6598 MEMB     187      CHL1     C14      CRL1    -0.900000E-01   12.0110           0
      6599 MEMB     187      CHL1     H14      HGA1     0.900000E-01   1.00800           0
      6600 MEMB     187      CHL1     C15      CRL2    -0.180000       12.0110           0
      6601 MEMB     187      CHL1     H15A     HGA2     0.900000E-01   1.00800           0
      6602 MEMB     187      CHL1     H15B     HGA2     0.900000E-01   1.00800           0
      6603 MEMB     187      CHL1     C16      CRL2    -0.180000       12.0110           0
      6604 MEMB     187      CHL1     H16A     HGA2     0.900000E-01   1.00800           0
      6605 MEMB     187      CHL1     H16B     HGA2     0.900000E-01   1.00800           0
      6606 MEMB     187      CHL1     C17      CRL1    -0.900000E-01   12.0110           0
      6607 MEMB     187      CHL1     H17      HGA1     0.900000E-01   1.00800           0
      6608 MEMB     187      CHL1     C13      CRL1     0.000000       12.0110           0
      6609 MEMB     187      CHL1     C18      CTL3    -0.270000       12.0110           0
      6610 MEMB     187      CHL1     H18A     HAL3     0.900000E-01   1.00800           0
      6611 MEMB     187      CHL1     H18B     HAL3     0.900000E-01   1.00800           0
      6612 MEMB     187      CHL1     H18C     HAL3     0.900000E-01   1.00800           0
      6613 MEMB     187      CHL1     C12      CRL2    -0.180000       12.0110           0
      6614 MEMB     187      CHL1     H12A     HGA2     0.900000E-01   1.00800           0
      6615 MEMB     187      CHL1     H12B     HGA2     0.900000E-01   1.00800           0
      6616 MEMB     187      CHL1     C11      CRL2    -0.180000       12.0110           0
      6617 MEMB     187      CHL1     H11A     HGA2     0.900000E-01   1.00800           0
      6618 MEMB     187      CHL1     H11B     HGA2     0.900000E-01   1.00800           0
      6619 MEMB     187      CHL1     C9       CRL1    -0.900000E-01   12.0110           0
      6620 MEMB     187      CHL1     H9       HGA1     0.900000E-01   1.00800           0
      6621 MEMB     187      CHL1     C10      CRL1     0.000000       12.0110           0
      6622 MEMB     187      CHL1     C19      CTL3    -0.270000       12.0110           0
      6623 MEMB     187      CHL1     H19A     HAL3     0.900000E-01   1.00800           0
      6624 MEMB     187      CHL1     H19B     HAL3     0.900000E-01   1.00800           0
      6625 MEMB     187      CHL1     H19C     HAL3     0.900000E-01   1.00800           0
      6626 MEMB     187      CHL1     C1       CRL2    -0.180000       12.0110           0
      6627 MEMB     187      CHL1     H1A      HGA2     0.900000E-01   1.00800           0
      6628 MEMB     187      CHL1     H1B      HGA2     0.900000E-01   1.00800           0
      6629 MEMB     187      CHL1     C2       CRL2    -0.180000       12.0110           0
      6630 MEMB     187      CHL1     H2A      HGA2     0.900000E-01   1.00800           0
      6631 MEMB     187      CHL1     H2B      HGA2     0.900000E-01   1.00800           0
      6632 MEMB     187      CHL1     C20      CTL1    -0.900000E-01   12.0110           0
      6633 MEMB     187      CHL1     H20      HAL1     0.900000E-01   1.00800           0
      6634 MEMB     187      CHL1     C21      CTL3    -0.270000       12.0110           0
      6635 MEMB     187      CHL1     H21A     HAL3     0.900000E-01   1.00800           0
      6636 MEMB     187      CHL1     H21B     HAL3     0.900000E-01   1.00800           0
      6637 MEMB     187      CHL1     H21C     HAL3     0.900000E-01   1.00800           0
      6638 MEMB     187      CHL1     C22      CTL2    -0.180000       12.0110           0
      6639 MEMB     187      CHL1     H22A     HAL2     0.900000E-01   1.00800           0
      6640 MEMB     187      CHL1     H22B     HAL2     0.900000E-01   1.00800           0
      6641 MEMB     187      CHL1     C23      CTL2    -0.180000       12.0110           0
      6642 MEMB     187      CHL1     H23A     HAL2     0.900000E-01   1.00800           0
      6643 MEMB     187      CHL1     H23B     HAL2     0.900000E-01   1.00800           0
      6644 MEMB     187      CHL1     C24      CTL2    -0.180000       12.0110           0
      6645 MEMB     187      CHL1     H24A     HAL2     0.900000E-01   1.00800           0
      6646 MEMB     187      CHL1     H24B     HAL2     0.900000E-01   1.00800           0
      6647 MEMB     187      CHL1     C25      CTL1    -0.900000E-01   12.0110           0
      6648 MEMB     187      CHL1     H25      HAL1     0.900000E-01   1.00800           0
      6649 MEMB     187      CHL1     C26      CTL3    -0.270000       12.0110           0
      6650 MEMB     187      CHL1     H26A     HAL3     0.900000E-01   1.00800           0
      6651 MEMB     187      CHL1     H26B     HAL3     0.900000E-01   1.00800           0
      6652 MEMB     187      CHL1     H26C     HAL3     0.900000E-01   1.00800           0
      6653 MEMB     187      CHL1     C27      CTL3    -0.270000       12.0110           0
      6654 MEMB     187      CHL1     H27A     HAL3     0.900000E-01   1.00800           0
      6655 MEMB     187      CHL1     H27B     HAL3     0.900000E-01   1.00800           0
      6656 MEMB     187      CHL1     H27C     HAL3     0.900000E-01   1.00800           0
      6657 MEMB     190      CHL1     C3       CRL1     0.140000       12.0110           0
      6658 MEMB     190      CHL1     H3       HGA1     0.900000E-01   1.00800           0
      6659 MEMB     190      CHL1     O3       OHL     -0.660000       15.9994           0
      6660 MEMB     190      CHL1     H3'      HOL      0.430000       1.00800           0
      6661 MEMB     190      CHL1     C4       CRL2    -0.180000       12.0110           0
      6662 MEMB     190      CHL1     H4A      HGA2     0.900000E-01   1.00800           0
      6663 MEMB     190      CHL1     H4B      HGA2     0.900000E-01   1.00800           0
      6664 MEMB     190      CHL1     C5       CEL1     0.000000       12.0110           0
      6665 MEMB     190      CHL1     C6       CEL1    -0.150000       12.0110           0
      6666 MEMB     190      CHL1     H6       HEL1     0.150000       1.00800           0
      6667 MEMB     190      CHL1     C7       CRL2    -0.180000       12.0110           0
      6668 MEMB     190      CHL1     H7A      HGA2     0.900000E-01   1.00800           0
      6669 MEMB     190      CHL1     H7B      HGA2     0.900000E-01   1.00800           0
      6670 MEMB     190      CHL1     C8       CRL1    -0.900000E-01   12.0110           0
      6671 MEMB     190      CHL1     H8       HGA1     0.900000E-01   1.00800           0
      6672 MEMB     190      CHL1     C14      CRL1    -0.900000E-01   12.0110           0
      6673 MEMB     190      CHL1     H14      HGA1     0.900000E-01   1.00800           0
      6674 MEMB     190      CHL1     C15      CRL2    -0.180000       12.0110           0
      6675 MEMB     190      CHL1     H15A     HGA2     0.900000E-01   1.00800           0
      6676 MEMB     190      CHL1     H15B     HGA2     0.900000E-01   1.00800           0
      6677 MEMB     190      CHL1     C16      CRL2    -0.180000       12.0110           0
      6678 MEMB     190      CHL1     H16A     HGA2     0.900000E-01   1.00800           0
      6679 MEMB     190      CHL1     H16B     HGA2     0.900000E-01   1.00800           0
      6680 MEMB     190      CHL1     C17      CRL1    -0.900000E-01   12.0110           0
      6681 MEMB     190      CHL1     H17      HGA1     0.900000E-01   1.00800           0
      6682 MEMB     190      CHL1     C13      CRL1     0.000000       12.0110           0
      6683 MEMB     190      CHL1     C18      CTL3    -0.270000       12.0110           0
      6684 MEMB     190      CHL1     H18A     HAL3     0.900000E-01   1.00800           0
      6685 MEMB     190      CHL1     H18B     HAL3     0.900000E-01   1.00800           0
      6686 MEMB     190      CHL1     H18C     HAL3     0.900000E-01   1.00800           0
      6687 MEMB     190      CHL1     C12      CRL2    -0.180000       12.0110           0
      6688 MEMB     190      CHL1     H12A     HGA2     0.900000E-01   1.00800           0
      6689 MEMB     190      CHL1     H12B     HGA2     0.900000E-01   1.00800           0
      6690 MEMB     190      CHL1     C11      CRL2    -0.180000       12.0110           0
      6691 MEMB     190      CHL1     H11A     HGA2     0.900000E-01   1.00800           0
      6692 MEMB     190      CHL1     H11B     HGA2     0.900000E-01   1.00800           0
      6693 MEMB     190      CHL1     C9       CRL1    -0.900000E-01   12.0110           0
      6694 MEMB     190      CHL1     H9       HGA1     0.900000E-01   1.00800           0
      6695 MEMB     190      CHL1     C10      CRL1     0.000000       12.0110           0
      6696 MEMB     190      CHL1     C19      CTL3    -0.270000       12.0110           0
      6697 MEMB     190      CHL1     H19A     HAL3     0.900000E-01   1.00800           0
      6698 MEMB     190      CHL1     H19B     HAL3     0.900000E-01   1.00800           0
      6699 MEMB     190      CHL1     H19C     HAL3     0.900000E-01   1.00800           0
      6700 MEMB     190      CHL1     C1       CRL2    -0.180000       12.0110           0
      6701 MEMB     190      CHL1     H1A      HGA2     0.900000E-01   1.00800           0
      6702 MEMB     190      CHL1     H1B      HGA2     0.900000E-01   1.00800           0
      6703 MEMB     190      CHL1     C2       CRL2    -0.180000       12.0110           0
      6704 MEMB     190      CHL1     H2A      HGA2     0.900000E-01   1.00800           0
      6705 MEMB     190      CHL1     H2B      HGA2     0.900000E-01   1.00800           0
      6706 MEMB     190      CHL1     C20      CTL1    -0.900000E-01   12.0110           0
      6707 MEMB     190      CHL1     H20      HAL1     0.900000E-01   1.00800           0
      6708 MEMB     190      CHL1     C21      CTL3    -0.270000       12.0110           0
      6709 MEMB     190      CHL1     H21A     HAL3     0.900000E-01   1.00800           0
      6710 MEMB     190      CHL1     H21B     HAL3     0.900000E-01   1.00800           0
      6711 MEMB     190      CHL1     H21C     HAL3     0.900000E-01   1.00800           0
      6712 MEMB     190      CHL1     C22      CTL2    -0.180000       12.0110           0
      6713 MEMB     190      CHL1     H22A     HAL2     0.900000E-01   1.00800           0
      6714 MEMB     190      CHL1     H22B     HAL2     0.900000E-01   1.00800           0
      6715 MEMB     190      CHL1     C23      CTL2    -0.180000       12.0110           0
      6716 MEMB     190      CHL1     H23A     HAL2     0.900000E-01   1.00800           0
      6717 MEMB     190      CHL1     H23B     HAL2     0.900000E-01   1.00800           0
      6718 MEMB     190      CHL1     C24      CTL2    -0.180000       12.0110           0
      6719 MEMB     190      CHL1     H24A     HAL2     0.900000E-01   1.00800           0
      6720 MEMB     190      CHL1     H24B     HAL2     0.900000E-01   1.00800           0
      6721 MEMB     190      CHL1     C25      CTL1    -0.900000E-01   12.0110           0
      6722 MEMB     190      CHL1     H25      HAL1     0.900000E-01   1.00800           0
      6723 MEMB     190      CHL1     C26      CTL3    -0.270000       12.0110           0
      6724 MEMB     190      CHL1     H26A     HAL3     0.900000E-01   1.00800           0
      6725 MEMB     190      CHL1     H26B     HAL3     0.900000E-01   1.00800           0
      6726 MEMB     190      CHL1     H26C     HAL3     0.900000E-01   1.00800           0
      6727 MEMB     190      CHL1     C27      CTL3    -0.270000       12.0110           0
      6728 MEMB     190      CHL1     H27A     HAL3     0.900000E-01   1.00800           0
      6729 MEMB     190      CHL1     H27B     HAL3     0.900000E-01   1.00800           0
      6730 MEMB     190      CHL1     H27C     HAL3     0.900000E-01   1.00800           0
      6731 MEMB     192      CHL1     C3       CRL1     0.140000       12.0110           0
      6732 MEMB     192      CHL1     H3       HGA1     0.900000E-01   1.00800           0
      6733 MEMB     192      CHL1     O3       OHL     -0.660000       15.9994           0
      6734 MEMB     192      CHL1     H3'      HOL      0.430000       1.00800           0
      6735 MEMB     192      CHL1     C4       CRL2    -0.180000       12.0110           0
      6736 MEMB     192      CHL1     H4A      HGA2     0.900000E-01   1.00800           0
      6737 MEMB     192      CHL1     H4B      HGA2     0.900000E-01   1.00800           0
      6738 MEMB     192      CHL1     C5       CEL1     0.000000       12.0110           0
      6739 MEMB     192      CHL1     C6       CEL1    -0.150000       12.0110           0
      6740 MEMB     192      CHL1     H6       HEL1     0.150000       1.00800           0
      6741 MEMB     192      CHL1     C7       CRL2    -0.180000       12.0110           0
      6742 MEMB     192      CHL1     H7A      HGA2     0.900000E-01   1.00800           0
      6743 MEMB     192      CHL1     H7B      HGA2     0.900000E-01   1.00800           0
      6744 MEMB     192      CHL1     C8       CRL1    -0.900000E-01   12.0110           0
      6745 MEMB     192      CHL1     H8       HGA1     0.900000E-01   1.00800           0
      6746 MEMB     192      CHL1     C14      CRL1    -0.900000E-01   12.0110           0
      6747 MEMB     192      CHL1     H14      HGA1     0.900000E-01   1.00800           0
      6748 MEMB     192      CHL1     C15      CRL2    -0.180000       12.0110           0
      6749 MEMB     192      CHL1     H15A     HGA2     0.900000E-01   1.00800           0
      6750 MEMB     192      CHL1     H15B     HGA2     0.900000E-01   1.00800           0
      6751 MEMB     192      CHL1     C16      CRL2    -0.180000       12.0110           0
      6752 MEMB     192      CHL1     H16A     HGA2     0.900000E-01   1.00800           0
      6753 MEMB     192      CHL1     H16B     HGA2     0.900000E-01   1.00800           0
      6754 MEMB     192      CHL1     C17      CRL1    -0.900000E-01   12.0110           0
      6755 MEMB     192      CHL1     H17      HGA1     0.900000E-01   1.00800           0
      6756 MEMB     192      CHL1     C13      CRL1     0.000000       12.0110           0
      6757 MEMB     192      CHL1     C18      CTL3    -0.270000       12.0110           0
      6758 MEMB     192      CHL1     H18A     HAL3     0.900000E-01   1.00800           0
      6759 MEMB     192      CHL1     H18B     HAL3     0.900000E-01   1.00800           0
      6760 MEMB     192      CHL1     H18C     HAL3     0.900000E-01   1.00800           0
      6761 MEMB     192      CHL1     C12      CRL2    -0.180000       12.0110           0
      6762 MEMB     192      CHL1     H12A     HGA2     0.900000E-01   1.00800           0
      6763 MEMB     192      CHL1     H12B     HGA2     0.900000E-01   1.00800           0
      6764 MEMB     192      CHL1     C11      CRL2    -0.180000       12.0110           0
      6765 MEMB     192      CHL1     H11A     HGA2     0.900000E-01   1.00800           0
      6766 MEMB     192      CHL1     H11B     HGA2     0.900000E-01   1.00800           0
      6767 MEMB     192      CHL1     C9       CRL1    -0.900000E-01   12.0110           0
      6768 MEMB     192      CHL1     H9       HGA1     0.900000E-01   1.00800           0
      6769 MEMB     192      CHL1     C10      CRL1     0.000000       12.0110           0
      6770 MEMB     192      CHL1     C19      CTL3    -0.270000       12.0110           0
      6771 MEMB     192      CHL1     H19A     HAL3     0.900000E-01   1.00800           0
      6772 MEMB     192      CHL1     H19B     HAL3     0.900000E-01   1.00800           0
      6773 MEMB     192      CHL1     H19C     HAL3     0.900000E-01   1.00800           0
      6774 MEMB     192      CHL1     C1       CRL2    -0.180000       12.0110           0
      6775 MEMB     192      CHL1     H1A      HGA2     0.900000E-01   1.00800           0
      6776 MEMB     192      CHL1     H1B      HGA2     0.900000E-01   1.00800           0
      6777 MEMB     192      CHL1     C2       CRL2    -0.180000       12.0110           0
      6778 MEMB     192      CHL1     H2A      HGA2     0.900000E-01   1.00800           0
      6779 MEMB     192      CHL1     H2B      HGA2     0.900000E-01   1.00800           0
      6780 MEMB     192      CHL1     C20      CTL1    -0.900000E-01   12.0110           0
      6781 MEMB     192      CHL1     H20      HAL1     0.900000E-01   1.00800           0
      6782 MEMB     192      CHL1     C21      CTL3    -0.270000       12.0110           0
      6783 MEMB     192      CHL1     H21A     HAL3     0.900000E-01   1.00800           0
      6784 MEMB     192      CHL1     H21B     HAL3     0.900000E-01   1.00800           0
      6785 MEMB     192      CHL1     H21C     HAL3     0.900000E-01   1.00800           0
      6786 MEMB     192      CHL1     C22      CTL2    -0.180000       12.0110           0
      6787 MEMB     192      CHL1     H22A     HAL2     0.900000E-01   1.00800           0
      6788 MEMB     192      CHL1     H22B     HAL2     0.900000E-01   1.00800           0
      6789 MEMB     192      CHL1     C23      CTL2    -0.180000       12.0110           0
      6790 MEMB     192      CHL1     H23A     HAL2     0.900000E-01   1.00800           0
      6791 MEMB     192      CHL1     H23B     HAL2     0.900000E-01   1.00800           0
      6792 MEMB     192      CHL1     C24      CTL2    -0.180000       12.0110           0
      6793 MEMB     192      CHL1     H24A     HAL2     0.900000E-01   1.00800           0
      6794 MEMB     192      CHL1     H24B     HAL2     0.900000E-01   1.00800           0
      6795 MEMB     192      CHL1     C25      CTL1    -0.900000E-01   12.0110           0
      6796 MEMB     192      CHL1     H25      HAL1     0.900000E-01   1.00800           0
      6797 MEMB     192      CHL1     C26      CTL3    -0.270000       12.0110           0
      6798 MEMB     192      CHL1     H26A     HAL3     0.900000E-01   1.00800           0
      6799 MEMB     192      CHL1     H26B     HAL3     0.900000E-01   1.00800           0
      6800 MEMB     192      CHL1     H26C     HAL3     0.900000E-01   1.00800           0
      6801 MEMB     192      CHL1     C27      CTL3    -0.270000       12.0110           0
      6802 MEMB     192      CHL1     H27A     HAL3     0.900000E-01   1.00800           0
      6803 MEMB     192      CHL1     H27B     HAL3     0.900000E-01   1.00800           0
      6804 MEMB     192      CHL1     H27C     HAL3     0.900000E-01   1.00800           0
      6805 MEMB     3        SOPE     N        NH3L    -0.300000       14.0070           0
      6806 MEMB     3        SOPE     HN1      HCL      0.330000       1.00800           0
      6807 MEMB     3        SOPE     HN2      HCL      0.330000       1.00800           0
      6808 MEMB     3        SOPE     HN3      HCL      0.330000       1.00800           0
      6809 MEMB     3        SOPE     C12      CTL2     0.130000       12.0110           0
      6810 MEMB     3        SOPE     H12A     HAL2     0.900000E-01   1.00800           0
      6811 MEMB     3        SOPE     H12B     HAL2     0.900000E-01   1.00800           0
      6812 MEMB     3        SOPE     C11      CTL2    -0.800000E-01   12.0110           0
      6813 MEMB     3        SOPE     H11A     HAL2     0.900000E-01   1.00800           0
      6814 MEMB     3        SOPE     H11B     HAL2     0.900000E-01   1.00800           0
      6815 MEMB     3        SOPE     P        PL       1.500000       30.9740           0
      6816 MEMB     3        SOPE     O13      O2L     -0.780000       15.9994           0
      6817 MEMB     3        SOPE     O14      O2L     -0.780000       15.9994           0
      6818 MEMB     3        SOPE     O12      OSLP    -0.570000       15.9994           0
      6819 MEMB     3        SOPE     O11      OSLP    -0.570000       15.9994           0
      6820 MEMB     3        SOPE     C1       CTL2    -0.800000E-01   12.0110           0
      6821 MEMB     3        SOPE     HA       HAL2     0.900000E-01   1.00800           0
      6822 MEMB     3        SOPE     HB       HAL2     0.900000E-01   1.00800           0
      6823 MEMB     3        SOPE     C2       CTL1     0.170000       12.0110           0
      6824 MEMB     3        SOPE     HS       HAL1     0.900000E-01   1.00800           0
      6825 MEMB     3        SOPE     O21      OSL     -0.490000       15.9994           0
      6826 MEMB     3        SOPE     C21      CL       0.900000       12.0110           0
      6827 MEMB     3        SOPE     O22      OBL     -0.630000       15.9994           0
      6828 MEMB     3        SOPE     C22      CTL2    -0.220000       12.0110           0
      6829 MEMB     3        SOPE     H2R      HAL2     0.900000E-01   1.00800           0
      6830 MEMB     3        SOPE     H2S      HAL2     0.900000E-01   1.00800           0
      6831 MEMB     3        SOPE     C3       CTL2     0.800000E-01   12.0110           0
      6832 MEMB     3        SOPE     HX       HAL2     0.900000E-01   1.00800           0
      6833 MEMB     3        SOPE     HY       HAL2     0.900000E-01   1.00800           0
      6834 MEMB     3        SOPE     O31      OSL     -0.490000       15.9994           0
      6835 MEMB     3        SOPE     C31      CL       0.900000       12.0110           0
      6836 MEMB     3        SOPE     O32      OBL     -0.630000       15.9994           0
      6837 MEMB     3        SOPE     C32      CTL2    -0.220000       12.0110           0
      6838 MEMB     3        SOPE     H2X      HAL2     0.900000E-01   1.00800           0
      6839 MEMB     3        SOPE     H2Y      HAL2     0.900000E-01   1.00800           0
      6840 MEMB     3        SOPE     C23      CTL2    -0.180000       12.0110           0
      6841 MEMB     3        SOPE     H3R      HAL2     0.900000E-01   1.00800           0
      6842 MEMB     3        SOPE     H3S      HAL2     0.900000E-01   1.00800           0
      6843 MEMB     3        SOPE     C24      CTL2    -0.180000       12.0110           0
      6844 MEMB     3        SOPE     H4R      HAL2     0.900000E-01   1.00800           0
      6845 MEMB     3        SOPE     H4S      HAL2     0.900000E-01   1.00800           0
      6846 MEMB     3        SOPE     C25      CTL2    -0.180000       12.0110           0
      6847 MEMB     3        SOPE     H5R      HAL2     0.900000E-01   1.00800           0
      6848 MEMB     3        SOPE     H5S      HAL2     0.900000E-01   1.00800           0
      6849 MEMB     3        SOPE     C26      CTL2    -0.180000       12.0110           0
      6850 MEMB     3        SOPE     H6R      HAL2     0.900000E-01   1.00800           0
      6851 MEMB     3        SOPE     H6S      HAL2     0.900000E-01   1.00800           0
      6852 MEMB     3        SOPE     C27      CTL2    -0.180000       12.0110           0
      6853 MEMB     3        SOPE     H7R      HAL2     0.900000E-01   1.00800           0
      6854 MEMB     3        SOPE     H7S      HAL2     0.900000E-01   1.00800           0
      6855 MEMB     3        SOPE     C28      CTL2    -0.180000       12.0110           0
      6856 MEMB     3        SOPE     H8R      HAL2     0.900000E-01   1.00800           0
      6857 MEMB     3        SOPE     H8S      HAL2     0.900000E-01   1.00800           0
      6858 MEMB     3        SOPE     C29      CEL1    -0.150000       12.0110           0
      6859 MEMB     3        SOPE     H91      HEL1     0.150000       1.00800           0
      6860 MEMB     3        SOPE     C210     CEL1    -0.150000       12.0110           0
      6861 MEMB     3        SOPE     H101     HEL1     0.150000       1.00800           0
      6862 MEMB     3        SOPE     C211     CTL2    -0.180000       12.0110           0
      6863 MEMB     3        SOPE     H11R     HAL2     0.900000E-01   1.00800           0
      6864 MEMB     3        SOPE     H11S     HAL2     0.900000E-01   1.00800           0
      6865 MEMB     3        SOPE     C212     CTL2    -0.180000       12.0110           0
      6866 MEMB     3        SOPE     H12R     HAL2     0.900000E-01   1.00800           0
      6867 MEMB     3        SOPE     H12S     HAL2     0.900000E-01   1.00800           0
      6868 MEMB     3        SOPE     C213     CTL2    -0.180000       12.0110           0
      6869 MEMB     3        SOPE     H13R     HAL2     0.900000E-01   1.00800           0
      6870 MEMB     3        SOPE     H13S     HAL2     0.900000E-01   1.00800           0
      6871 MEMB     3        SOPE     C214     CTL2    -0.180000       12.0110           0
      6872 MEMB     3        SOPE     H14R     HAL2     0.900000E-01   1.00800           0
      6873 MEMB     3        SOPE     H14S     HAL2     0.900000E-01   1.00800           0
      6874 MEMB     3        SOPE     C215     CTL2    -0.180000       12.0110           0
      6875 MEMB     3        SOPE     H15R     HAL2     0.900000E-01   1.00800           0
      6876 MEMB     3        SOPE     H15S     HAL2     0.900000E-01   1.00800           0
      6877 MEMB     3        SOPE     C216     CTL2    -0.180000       12.0110           0
      6878 MEMB     3        SOPE     H16R     HAL2     0.900000E-01   1.00800           0
      6879 MEMB     3        SOPE     H16S     HAL2     0.900000E-01   1.00800           0
      6880 MEMB     3        SOPE     C217     CTL2    -0.180000       12.0110           0
      6881 MEMB     3        SOPE     H17R     HAL2     0.900000E-01   1.00800           0
      6882 MEMB     3        SOPE     H17S     HAL2     0.900000E-01   1.00800           0
      6883 MEMB     3        SOPE     C218     CTL3    -0.270000       12.0110           0
      6884 MEMB     3        SOPE     H18R     HAL3     0.900000E-01   1.00800           0
      6885 MEMB     3        SOPE     H18S     HAL3     0.900000E-01   1.00800           0
      6886 MEMB     3        SOPE     H18T     HAL3     0.900000E-01   1.00800           0
      6887 MEMB     3        SOPE     C33      CTL2    -0.180000       12.0110           0
      6888 MEMB     3        SOPE     H3X      HAL2     0.900000E-01   1.00800           0
      6889 MEMB     3        SOPE     H3Y      HAL2     0.900000E-01   1.00800           0
      6890 MEMB     3        SOPE     C34      CTL2    -0.180000       12.0110           0
      6891 MEMB     3        SOPE     H4X      HAL2     0.900000E-01   1.00800           0
      6892 MEMB     3        SOPE     H4Y      HAL2     0.900000E-01   1.00800           0
      6893 MEMB     3        SOPE     C35      CTL2    -0.180000       12.0110           0
      6894 MEMB     3        SOPE     H5X      HAL2     0.900000E-01   1.00800           0
      6895 MEMB     3        SOPE     H5Y      HAL2     0.900000E-01   1.00800           0
      6896 MEMB     3        SOPE     C36      CTL2    -0.180000       12.0110           0
      6897 MEMB     3        SOPE     H6X      HAL2     0.900000E-01   1.00800           0
      6898 MEMB     3        SOPE     H6Y      HAL2     0.900000E-01   1.00800           0
      6899 MEMB     3        SOPE     C37      CTL2    -0.180000       12.0110           0
      6900 MEMB     3        SOPE     H7X      HAL2     0.900000E-01   1.00800           0
      6901 MEMB     3        SOPE     H7Y      HAL2     0.900000E-01   1.00800           0
      6902 MEMB     3        SOPE     C38      CTL2    -0.180000       12.0110           0
      6903 MEMB     3        SOPE     H8X      HAL2     0.900000E-01   1.00800           0
      6904 MEMB     3        SOPE     H8Y      HAL2     0.900000E-01   1.00800           0
      6905 MEMB     3        SOPE     C39      CTL2    -0.180000       12.0110           0
      6906 MEMB     3        SOPE     H9X      HAL2     0.900000E-01   1.00800           0
      6907 MEMB     3        SOPE     H9Y      HAL2     0.900000E-01   1.00800           0
      6908 MEMB     3        SOPE     C310     CTL2    -0.180000       12.0110           0
      6909 MEMB     3        SOPE     H10X     HAL2     0.900000E-01   1.00800           0
      6910 MEMB     3        SOPE     H10Y     HAL2     0.900000E-01   1.00800           0
      6911 MEMB     3        SOPE     C311     CTL2    -0.180000       12.0110           0
      6912 MEMB     3        SOPE     H11X     HAL2     0.900000E-01   1.00800           0
      6913 MEMB     3        SOPE     H11Y     HAL2     0.900000E-01   1.00800           0
      6914 MEMB     3        SOPE     C312     CTL2    -0.180000       12.0110           0
      6915 MEMB     3        SOPE     H12X     HAL2     0.900000E-01   1.00800           0
      6916 MEMB     3        SOPE     H12Y     HAL2     0.900000E-01   1.00800           0
      6917 MEMB     3        SOPE     C313     CTL2    -0.180000       12.0110           0
      6918 MEMB     3        SOPE     H13X     HAL2     0.900000E-01   1.00800           0
      6919 MEMB     3        SOPE     H13Y     HAL2     0.900000E-01   1.00800           0
      6920 MEMB     3        SOPE     C314     CTL2    -0.180000       12.0110           0
      6921 MEMB     3        SOPE     H14X     HAL2     0.900000E-01   1.00800           0
      6922 MEMB     3        SOPE     H14Y     HAL2     0.900000E-01   1.00800           0
      6923 MEMB     3        SOPE     C315     CTL2    -0.180000       12.0110           0
      6924 MEMB     3        SOPE     H15X     HAL2     0.900000E-01   1.00800           0
      6925 MEMB     3        SOPE     H15Y     HAL2     0.900000E-01   1.00800           0
      6926 MEMB     3        SOPE     C316     CTL2    -0.180000       12.0110           0
      6927 MEMB     3        SOPE     H16X     HAL2     0.900000E-01   1.00800           0
      6928 MEMB     3        SOPE     H16Y     HAL2     0.900000E-01   1.00800           0
      6929 MEMB     3        SOPE     C317     CTL2    -0.180000       12.0110           0
      6930 MEMB     3        SOPE     H17X     HAL2     0.900000E-01   1.00800           0
      6931 MEMB     3        SOPE     H17Y     HAL2     0.900000E-01   1.00800           0
      6932 MEMB     3        SOPE     C318     CTL3    -0.270000       12.0110           0
      6933 MEMB     3        SOPE     H18X     HAL3     0.900000E-01   1.00800           0
      6934 MEMB     3        SOPE     H18Y     HAL3     0.900000E-01   1.00800           0
      6935 MEMB     3        SOPE     H18Z     HAL3     0.900000E-01   1.00800           0
      6936 MEMB     10       SOPE     N        NH3L    -0.300000       14.0070           0
      6937 MEMB     10       SOPE     HN1      HCL      0.330000       1.00800           0
      6938 MEMB     10       SOPE     HN2      HCL      0.330000       1.00800           0
      6939 MEMB     10       SOPE     HN3      HCL      0.330000       1.00800           0
      6940 MEMB     10       SOPE     C12      CTL2     0.130000       12.0110           0
      6941 MEMB     10       SOPE     H12A     HAL2     0.900000E-01   1.00800           0
      6942 MEMB     10       SOPE     H12B     HAL2     0.900000E-01   1.00800           0
      6943 MEMB     10       SOPE     C11      CTL2    -0.800000E-01   12.0110           0
      6944 MEMB     10       SOPE     H11A     HAL2     0.900000E-01   1.00800           0
      6945 MEMB     10       SOPE     H11B     HAL2     0.900000E-01   1.00800           0
      6946 MEMB     10       SOPE     P        PL       1.500000       30.9740           0
      6947 MEMB     10       SOPE     O13      O2L     -0.780000       15.9994           0
      6948 MEMB     10       SOPE     O14      O2L     -0.780000       15.9994           0
      6949 MEMB     10       SOPE     O12      OSLP    -0.570000       15.9994           0
      6950 MEMB     10       SOPE     O11      OSLP    -0.570000       15.9994           0
      6951 MEMB     10       SOPE     C1       CTL2    -0.800000E-01   12.0110           0
      6952 MEMB     10       SOPE     HA       HAL2     0.900000E-01   1.00800           0
      6953 MEMB     10       SOPE     HB       HAL2     0.900000E-01   1.00800           0
      6954 MEMB     10       SOPE     C2       CTL1     0.170000       12.0110           0
      6955 MEMB     10       SOPE     HS       HAL1     0.900000E-01   1.00800           0
      6956 MEMB     10       SOPE     O21      OSL     -0.490000       15.9994           0
      6957 MEMB     10       SOPE     C21      CL       0.900000       12.0110           0
      6958 MEMB     10       SOPE     O22      OBL     -0.630000       15.9994           0
      6959 MEMB     10       SOPE     C22      CTL2    -0.220000       12.0110           0
      6960 MEMB     10       SOPE     H2R      HAL2     0.900000E-01   1.00800           0
      6961 MEMB     10       SOPE     H2S      HAL2     0.900000E-01   1.00800           0
      6962 MEMB     10       SOPE     C3       CTL2     0.800000E-01   12.0110           0
      6963 MEMB     10       SOPE     HX       HAL2     0.900000E-01   1.00800           0
      6964 MEMB     10       SOPE     HY       HAL2     0.900000E-01   1.00800           0
      6965 MEMB     10       SOPE     O31      OSL     -0.490000       15.9994           0
      6966 MEMB     10       SOPE     C31      CL       0.900000       12.0110           0
      6967 MEMB     10       SOPE     O32      OBL     -0.630000       15.9994           0
      6968 MEMB     10       SOPE     C32      CTL2    -0.220000       12.0110           0
      6969 MEMB     10       SOPE     H2X      HAL2     0.900000E-01   1.00800           0
      6970 MEMB     10       SOPE     H2Y      HAL2     0.900000E-01   1.00800           0
      6971 MEMB     10       SOPE     C23      CTL2    -0.180000       12.0110           0
      6972 MEMB     10       SOPE     H3R      HAL2     0.900000E-01   1.00800           0
      6973 MEMB     10       SOPE     H3S      HAL2     0.900000E-01   1.00800           0
      6974 MEMB     10       SOPE     C24      CTL2    -0.180000       12.0110           0
      6975 MEMB     10       SOPE     H4R      HAL2     0.900000E-01   1.00800           0
      6976 MEMB     10       SOPE     H4S      HAL2     0.900000E-01   1.00800           0
      6977 MEMB     10       SOPE     C25      CTL2    -0.180000       12.0110           0
      6978 MEMB     10       SOPE     H5R      HAL2     0.900000E-01   1.00800           0
      6979 MEMB     10       SOPE     H5S      HAL2     0.900000E-01   1.00800           0
      6980 MEMB     10       SOPE     C26      CTL2    -0.180000       12.0110           0
      6981 MEMB     10       SOPE     H6R      HAL2     0.900000E-01   1.00800           0
      6982 MEMB     10       SOPE     H6S      HAL2     0.900000E-01   1.00800           0
      6983 MEMB     10       SOPE     C27      CTL2    -0.180000       12.0110           0
      6984 MEMB     10       SOPE     H7R      HAL2     0.900000E-01   1.00800           0
      6985 MEMB     10       SOPE     H7S      HAL2     0.900000E-01   1.00800           0
      6986 MEMB     10       SOPE     C28      CTL2    -0.180000       12.0110           0
      6987 MEMB     10       SOPE     H8R      HAL2     0.900000E-01   1.00800           0
      6988 MEMB     10       SOPE     H8S      HAL2     0.900000E-01   1.00800           0
      6989 MEMB     10       SOPE     C29      CEL1    -0.150000       12.0110           0
      6990 MEMB     10       SOPE     H91      HEL1     0.150000       1.00800           0
      6991 MEMB     10       SOPE     C210     CEL1    -0.150000       12.0110           0
      6992 MEMB     10       SOPE     H101     HEL1     0.150000       1.00800           0
      6993 MEMB     10       SOPE     C211     CTL2    -0.180000       12.0110           0
      6994 MEMB     10       SOPE     H11R     HAL2     0.900000E-01   1.00800           0
      6995 MEMB     10       SOPE     H11S     HAL2     0.900000E-01   1.00800           0
      6996 MEMB     10       SOPE     C212     CTL2    -0.180000       12.0110           0
      6997 MEMB     10       SOPE     H12R     HAL2     0.900000E-01   1.00800           0
      6998 MEMB     10       SOPE     H12S     HAL2     0.900000E-01   1.00800           0
      6999 MEMB     10       SOPE     C213     CTL2    -0.180000       12.0110           0
      7000 MEMB     10       SOPE     H13R     HAL2     0.900000E-01   1.00800           0
      7001 MEMB     10       SOPE     H13S     HAL2     0.900000E-01   1.00800           0
      7002 MEMB     10       SOPE     C214     CTL2    -0.180000       12.0110           0
      7003 MEMB     10       SOPE     H14R     HAL2     0.900000E-01   1.00800           0
      7004 MEMB     10       SOPE     H14S     HAL2     0.900000E-01   1.00800           0
      7005 MEMB     10       SOPE     C215     CTL2    -0.180000       12.0110           0
      7006 MEMB     10       SOPE     H15R     HAL2     0.900000E-01   1.00800           0
      7007 MEMB     10       SOPE     H15S     HAL2     0.900000E-01   1.00800           0
      7008 MEMB     10       SOPE     C216     CTL2    -0.180000       12.0110           0
      7009 MEMB     10       SOPE     H16R     HAL2     0.900000E-01   1.00800           0
      7010 MEMB     10       SOPE     H16S     HAL2     0.900000E-01   1.00800           0
      7011 MEMB     10       SOPE     C217     CTL2    -0.180000       12.0110           0
      7012 MEMB     10       SOPE     H17R     HAL2     0.900000E-01   1.00800           0
      7013 MEMB     10       SOPE     H17S     HAL2     0.900000E-01   1.00800           0
      7014 MEMB     10       SOPE     C218     CTL3    -0.270000       12.0110           0
      7015 MEMB     10       SOPE     H18R     HAL3     0.900000E-01   1.00800           0
      7016 MEMB     10       SOPE     H18S     HAL3     0.900000E-01   1.00800           0
      7017 MEMB     10       SOPE     H18T     HAL3     0.900000E-01   1.00800           0
      7018 MEMB     10       SOPE     C33      CTL2    -0.180000       12.0110           0
      7019 MEMB     10       SOPE     H3X      HAL2     0.900000E-01   1.00800           0
      7020 MEMB     10       SOPE     H3Y      HAL2     0.900000E-01   1.00800           0
      7021 MEMB     10       SOPE     C34      CTL2    -0.180000       12.0110           0
      7022 MEMB     10       SOPE     H4X      HAL2     0.900000E-01   1.00800           0
      7023 MEMB     10       SOPE     H4Y      HAL2     0.900000E-01   1.00800           0
      7024 MEMB     10       SOPE     C35      CTL2    -0.180000       12.0110           0
      7025 MEMB     10       SOPE     H5X      HAL2     0.900000E-01   1.00800           0
      7026 MEMB     10       SOPE     H5Y      HAL2     0.900000E-01   1.00800           0
      7027 MEMB     10       SOPE     C36      CTL2    -0.180000       12.0110           0
      7028 MEMB     10       SOPE     H6X      HAL2     0.900000E-01   1.00800           0
      7029 MEMB     10       SOPE     H6Y      HAL2     0.900000E-01   1.00800           0
      7030 MEMB     10       SOPE     C37      CTL2    -0.180000       12.0110           0
      7031 MEMB     10       SOPE     H7X      HAL2     0.900000E-01   1.00800           0
      7032 MEMB     10       SOPE     H7Y      HAL2     0.900000E-01   1.00800           0
      7033 MEMB     10       SOPE     C38      CTL2    -0.180000       12.0110           0
      7034 MEMB     10       SOPE     H8X      HAL2     0.900000E-01   1.00800           0
      7035 MEMB     10       SOPE     H8Y      HAL2     0.900000E-01   1.00800           0
      7036 MEMB     10       SOPE     C39      CTL2    -0.180000       12.0110           0
      7037 MEMB     10       SOPE     H9X      HAL2     0.900000E-01   1.00800           0
      7038 MEMB     10       SOPE     H9Y      HAL2     0.900000E-01   1.00800           0
      7039 MEMB     10       SOPE     C310     CTL2    -0.180000       12.0110           0
      7040 MEMB     10       SOPE     H10X     HAL2     0.900000E-01   1.00800           0
      7041 MEMB     10       SOPE     H10Y     HAL2     0.900000E-01   1.00800           0
      7042 MEMB     10       SOPE     C311     CTL2    -0.180000       12.0110           0
      7043 MEMB     10       SOPE     H11X     HAL2     0.900000E-01   1.00800           0
      7044 MEMB     10       SOPE     H11Y     HAL2     0.900000E-01   1.00800           0
      7045 MEMB     10       SOPE     C312     CTL2    -0.180000       12.0110           0
      7046 MEMB     10       SOPE     H12X     HAL2     0.900000E-01   1.00800           0
      7047 MEMB     10       SOPE     H12Y     HAL2     0.900000E-01   1.00800           0
      7048 MEMB     10       SOPE     C313     CTL2    -0.180000       12.0110           0
      7049 MEMB     10       SOPE     H13X     HAL2     0.900000E-01   1.00800           0
      7050 MEMB     10       SOPE     H13Y     HAL2     0.900000E-01   1.00800           0
      7051 MEMB     10       SOPE     C314     CTL2    -0.180000       12.0110           0
      7052 MEMB     10       SOPE     H14X     HAL2     0.900000E-01   1.00800           0
      7053 MEMB     10       SOPE     H14Y     HAL2     0.900000E-01   1.00800           0
      7054 MEMB     10       SOPE     C315     CTL2    -0.180000       12.0110           0
      7055 MEMB     10       SOPE     H15X     HAL2     0.900000E-01   1.00800           0
      7056 MEMB     10       SOPE     H15Y     HAL2     0.900000E-01   1.00800           0
      7057 MEMB     10       SOPE     C316     CTL2    -0.180000       12.0110           0
      7058 MEMB     10       SOPE     H16X     HAL2     0.900000E-01   1.00800           0
      7059 MEMB     10       SOPE     H16Y     HAL2     0.900000E-01   1.00800           0
      7060 MEMB     10       SOPE     C317     CTL2    -0.180000       12.0110           0
      7061 MEMB     10       SOPE     H17X     HAL2     0.900000E-01   1.00800           0
      7062 MEMB     10       SOPE     H17Y     HAL2     0.900000E-01   1.00800           0
      7063 MEMB     10       SOPE     C318     CTL3    -0.270000       12.0110           0
      7064 MEMB     10       SOPE     H18X     HAL3     0.900000E-01   1.00800           0
      7065 MEMB     10       SOPE     H18Y     HAL3     0.900000E-01   1.00800           0
      7066 MEMB     10       SOPE     H18Z     HAL3     0.900000E-01   1.00800           0
      7067 MEMB     18       SOPE     N        NH3L    -0.300000       14.0070           0
      7068 MEMB     18       SOPE     HN1      HCL      0.330000       1.00800           0
      7069 MEMB     18       SOPE     HN2      HCL      0.330000       1.00800           0
      7070 MEMB     18       SOPE     HN3      HCL      0.330000       1.00800           0
      7071 MEMB     18       SOPE     C12      CTL2     0.130000       12.0110           0
      7072 MEMB     18       SOPE     H12A     HAL2     0.900000E-01   1.00800           0
      7073 MEMB     18       SOPE     H12B     HAL2     0.900000E-01   1.00800           0
      7074 MEMB     18       SOPE     C11      CTL2    -0.800000E-01   12.0110           0
      7075 MEMB     18       SOPE     H11A     HAL2     0.900000E-01   1.00800           0
      7076 MEMB     18       SOPE     H11B     HAL2     0.900000E-01   1.00800           0
      7077 MEMB     18       SOPE     P        PL       1.500000       30.9740           0
      7078 MEMB     18       SOPE     O13      O2L     -0.780000       15.9994           0
      7079 MEMB     18       SOPE     O14      O2L     -0.780000       15.9994           0
      7080 MEMB     18       SOPE     O12      OSLP    -0.570000       15.9994           0
      7081 MEMB     18       SOPE     O11      OSLP    -0.570000       15.9994           0
      7082 MEMB     18       SOPE     C1       CTL2    -0.800000E-01   12.0110           0
      7083 MEMB     18       SOPE     HA       HAL2     0.900000E-01   1.00800           0
      7084 MEMB     18       SOPE     HB       HAL2     0.900000E-01   1.00800           0
      7085 MEMB     18       SOPE     C2       CTL1     0.170000       12.0110           0
      7086 MEMB     18       SOPE     HS       HAL1     0.900000E-01   1.00800           0
      7087 MEMB     18       SOPE     O21      OSL     -0.490000       15.9994           0
      7088 MEMB     18       SOPE     C21      CL       0.900000       12.0110           0
      7089 MEMB     18       SOPE     O22      OBL     -0.630000       15.9994           0
      7090 MEMB     18       SOPE     C22      CTL2    -0.220000       12.0110           0
      7091 MEMB     18       SOPE     H2R      HAL2     0.900000E-01   1.00800           0
      7092 MEMB     18       SOPE     H2S      HAL2     0.900000E-01   1.00800           0
      7093 MEMB     18       SOPE     C3       CTL2     0.800000E-01   12.0110           0
      7094 MEMB     18       SOPE     HX       HAL2     0.900000E-01   1.00800           0
      7095 MEMB     18       SOPE     HY       HAL2     0.900000E-01   1.00800           0
      7096 MEMB     18       SOPE     O31      OSL     -0.490000       15.9994           0
      7097 MEMB     18       SOPE     C31      CL       0.900000       12.0110           0
      7098 MEMB     18       SOPE     O32      OBL     -0.630000       15.9994           0
      7099 MEMB     18       SOPE     C32      CTL2    -0.220000       12.0110           0
      7100 MEMB     18       SOPE     H2X      HAL2     0.900000E-01   1.00800           0
      7101 MEMB     18       SOPE     H2Y      HAL2     0.900000E-01   1.00800           0
      7102 MEMB     18       SOPE     C23      CTL2    -0.180000       12.0110           0
      7103 MEMB     18       SOPE     H3R      HAL2     0.900000E-01   1.00800           0
      7104 MEMB     18       SOPE     H3S      HAL2     0.900000E-01   1.00800           0
      7105 MEMB     18       SOPE     C24      CTL2    -0.180000       12.0110           0
      7106 MEMB     18       SOPE     H4R      HAL2     0.900000E-01   1.00800           0
      7107 MEMB     18       SOPE     H4S      HAL2     0.900000E-01   1.00800           0
      7108 MEMB     18       SOPE     C25      CTL2    -0.180000       12.0110           0
      7109 MEMB     18       SOPE     H5R      HAL2     0.900000E-01   1.00800           0
      7110 MEMB     18       SOPE     H5S      HAL2     0.900000E-01   1.00800           0
      7111 MEMB     18       SOPE     C26      CTL2    -0.180000       12.0110           0
      7112 MEMB     18       SOPE     H6R      HAL2     0.900000E-01   1.00800           0
      7113 MEMB     18       SOPE     H6S      HAL2     0.900000E-01   1.00800           0
      7114 MEMB     18       SOPE     C27      CTL2    -0.180000       12.0110           0
      7115 MEMB     18       SOPE     H7R      HAL2     0.900000E-01   1.00800           0
      7116 MEMB     18       SOPE     H7S      HAL2     0.900000E-01   1.00800           0
      7117 MEMB     18       SOPE     C28      CTL2    -0.180000       12.0110           0
      7118 MEMB     18       SOPE     H8R      HAL2     0.900000E-01   1.00800           0
      7119 MEMB     18       SOPE     H8S      HAL2     0.900000E-01   1.00800           0
      7120 MEMB     18       SOPE     C29      CEL1    -0.150000       12.0110           0
      7121 MEMB     18       SOPE     H91      HEL1     0.150000       1.00800           0
      7122 MEMB     18       SOPE     C210     CEL1    -0.150000       12.0110           0
      7123 MEMB     18       SOPE     H101     HEL1     0.150000       1.00800           0
      7124 MEMB     18       SOPE     C211     CTL2    -0.180000       12.0110           0
      7125 MEMB     18       SOPE     H11R     HAL2     0.900000E-01   1.00800           0
      7126 MEMB     18       SOPE     H11S     HAL2     0.900000E-01   1.00800           0
      7127 MEMB     18       SOPE     C212     CTL2    -0.180000       12.0110           0
      7128 MEMB     18       SOPE     H12R     HAL2     0.900000E-01   1.00800           0
      7129 MEMB     18       SOPE     H12S     HAL2     0.900000E-01   1.00800           0
      7130 MEMB     18       SOPE     C213     CTL2    -0.180000       12.0110           0
      7131 MEMB     18       SOPE     H13R     HAL2     0.900000E-01   1.00800           0
      7132 MEMB     18       SOPE     H13S     HAL2     0.900000E-01   1.00800           0
      7133 MEMB     18       SOPE     C214     CTL2    -0.180000       12.0110           0
      7134 MEMB     18       SOPE     H14R     HAL2     0.900000E-01   1.00800           0
      7135 MEMB     18       SOPE     H14S     HAL2     0.900000E-01   1.00800           0
      7136 MEMB     18       SOPE     C215     CTL2    -0.180000       12.0110           0
      7137 MEMB     18       SOPE     H15R     HAL2     0.900000E-01   1.00800           0
      7138 MEMB     18       SOPE     H15S     HAL2     0.900000E-01   1.00800           0
      7139 MEMB     18       SOPE     C216     CTL2    -0.180000       12.0110           0
      7140 MEMB     18       SOPE     H16R     HAL2     0.900000E-01   1.00800           0
      7141 MEMB     18       SOPE     H16S     HAL2     0.900000E-01   1.00800           0
      7142 MEMB     18       SOPE     C217     CTL2    -0.180000       12.0110           0
      7143 MEMB     18       SOPE     H17R     HAL2     0.900000E-01   1.00800           0
      7144 MEMB     18       SOPE     H17S     HAL2     0.900000E-01   1.00800           0
      7145 MEMB     18       SOPE     C218     CTL3    -0.270000       12.0110           0
      7146 MEMB     18       SOPE     H18R     HAL3     0.900000E-01   1.00800           0
      7147 MEMB     18       SOPE     H18S     HAL3     0.900000E-01   1.00800           0
      7148 MEMB     18       SOPE     H18T     HAL3     0.900000E-01   1.00800           0
      7149 MEMB     18       SOPE     C33      CTL2    -0.180000       12.0110           0
      7150 MEMB     18       SOPE     H3X      HAL2     0.900000E-01   1.00800           0
      7151 MEMB     18       SOPE     H3Y      HAL2     0.900000E-01   1.00800           0
      7152 MEMB     18       SOPE     C34      CTL2    -0.180000       12.0110           0
      7153 MEMB     18       SOPE     H4X      HAL2     0.900000E-01   1.00800           0
      7154 MEMB     18       SOPE     H4Y      HAL2     0.900000E-01   1.00800           0
      7155 MEMB     18       SOPE     C35      CTL2    -0.180000       12.0110           0
      7156 MEMB     18       SOPE     H5X      HAL2     0.900000E-01   1.00800           0
      7157 MEMB     18       SOPE     H5Y      HAL2     0.900000E-01   1.00800           0
      7158 MEMB     18       SOPE     C36      CTL2    -0.180000       12.0110           0
      7159 MEMB     18       SOPE     H6X      HAL2     0.900000E-01   1.00800           0
      7160 MEMB     18       SOPE     H6Y      HAL2     0.900000E-01   1.00800           0
      7161 MEMB     18       SOPE     C37      CTL2    -0.180000       12.0110           0
      7162 MEMB     18       SOPE     H7X      HAL2     0.900000E-01   1.00800           0
      7163 MEMB     18       SOPE     H7Y      HAL2     0.900000E-01   1.00800           0
      7164 MEMB     18       SOPE     C38      CTL2    -0.180000       12.0110           0
      7165 MEMB     18       SOPE     H8X      HAL2     0.900000E-01   1.00800           0
      7166 MEMB     18       SOPE     H8Y      HAL2     0.900000E-01   1.00800           0
      7167 MEMB     18       SOPE     C39      CTL2    -0.180000       12.0110           0
      7168 MEMB     18       SOPE     H9X      HAL2     0.900000E-01   1.00800           0
      7169 MEMB     18       SOPE     H9Y      HAL2     0.900000E-01   1.00800           0
      7170 MEMB     18       SOPE     C310     CTL2    -0.180000       12.0110           0
      7171 MEMB     18       SOPE     H10X     HAL2     0.900000E-01   1.00800           0
      7172 MEMB     18       SOPE     H10Y     HAL2     0.900000E-01   1.00800           0
      7173 MEMB     18       SOPE     C311     CTL2    -0.180000       12.0110           0
      7174 MEMB     18       SOPE     H11X     HAL2     0.900000E-01   1.00800           0
      7175 MEMB     18       SOPE     H11Y     HAL2     0.900000E-01   1.00800           0
      7176 MEMB     18       SOPE     C312     CTL2    -0.180000       12.0110           0
      7177 MEMB     18       SOPE     H12X     HAL2     0.900000E-01   1.00800           0
      7178 MEMB     18       SOPE     H12Y     HAL2     0.900000E-01   1.00800           0
      7179 MEMB     18       SOPE     C313     CTL2    -0.180000       12.0110           0
      7180 MEMB     18       SOPE     H13X     HAL2     0.900000E-01   1.00800           0
      7181 MEMB     18       SOPE     H13Y     HAL2     0.900000E-01   1.00800           0
      7182 MEMB     18       SOPE     C314     CTL2    -0.180000       12.0110           0
      7183 MEMB     18       SOPE     H14X     HAL2     0.900000E-01   1.00800           0
      7184 MEMB     18       SOPE     H14Y     HAL2     0.900000E-01   1.00800           0
      7185 MEMB     18       SOPE     C315     CTL2    -0.180000       12.0110           0
      7186 MEMB     18       SOPE     H15X     HAL2     0.900000E-01   1.00800           0
      7187 MEMB     18       SOPE     H15Y     HAL2     0.900000E-01   1.00800           0
      7188 MEMB     18       SOPE     C316     CTL2    -0.180000       12.0110           0
      7189 MEMB     18       SOPE     H16X     HAL2     0.900000E-01   1.00800           0
      7190 MEMB     18       SOPE     H16Y     HAL2     0.900000E-01   1.00800           0
      7191 MEMB     18       SOPE     C317     CTL2    -0.180000       12.0110           0
      7192 MEMB     18       SOPE     H17X     HAL2     0.900000E-01   1.00800           0
      7193 MEMB     18       SOPE     H17Y     HAL2     0.900000E-01   1.00800           0
      7194 MEMB     18       SOPE     C318     CTL3    -0.270000       12.0110           0
      7195 MEMB     18       SOPE     H18X     HAL3     0.900000E-01   1.00800           0
      7196 MEMB     18       SOPE     H18Y     HAL3     0.900000E-01   1.00800           0
      7197 MEMB     18       SOPE     H18Z     HAL3     0.900000E-01   1.00800           0
      7198 MEMB     22       SOPE     N        NH3L    -0.300000       14.0070           0
      7199 MEMB     22       SOPE     HN1      HCL      0.330000       1.00800           0
      7200 MEMB     22       SOPE     HN2      HCL      0.330000       1.00800           0
      7201 MEMB     22       SOPE     HN3      HCL      0.330000       1.00800           0
      7202 MEMB     22       SOPE     C12      CTL2     0.130000       12.0110           0
      7203 MEMB     22       SOPE     H12A     HAL2     0.900000E-01   1.00800           0
      7204 MEMB     22       SOPE     H12B     HAL2     0.900000E-01   1.00800           0
      7205 MEMB     22       SOPE     C11      CTL2    -0.800000E-01   12.0110           0
      7206 MEMB     22       SOPE     H11A     HAL2     0.900000E-01   1.00800           0
      7207 MEMB     22       SOPE     H11B     HAL2     0.900000E-01   1.00800           0
      7208 MEMB     22       SOPE     P        PL       1.500000       30.9740           0
      7209 MEMB     22       SOPE     O13      O2L     -0.780000       15.9994           0
      7210 MEMB     22       SOPE     O14      O2L     -0.780000       15.9994           0
      7211 MEMB     22       SOPE     O12      OSLP    -0.570000       15.9994           0
      7212 MEMB     22       SOPE     O11      OSLP    -0.570000       15.9994           0
      7213 MEMB     22       SOPE     C1       CTL2    -0.800000E-01   12.0110           0
      7214 MEMB     22       SOPE     HA       HAL2     0.900000E-01   1.00800           0
      7215 MEMB     22       SOPE     HB       HAL2     0.900000E-01   1.00800           0
      7216 MEMB     22       SOPE     C2       CTL1     0.170000       12.0110           0
      7217 MEMB     22       SOPE     HS       HAL1     0.900000E-01   1.00800           0
      7218 MEMB     22       SOPE     O21      OSL     -0.490000       15.9994           0
      7219 MEMB     22       SOPE     C21      CL       0.900000       12.0110           0
      7220 MEMB     22       SOPE     O22      OBL     -0.630000       15.9994           0
      7221 MEMB     22       SOPE     C22      CTL2    -0.220000       12.0110           0
      7222 MEMB     22       SOPE     H2R      HAL2     0.900000E-01   1.00800           0
      7223 MEMB     22       SOPE     H2S      HAL2     0.900000E-01   1.00800           0
      7224 MEMB     22       SOPE     C3       CTL2     0.800000E-01   12.0110           0
      7225 MEMB     22       SOPE     HX       HAL2     0.900000E-01   1.00800           0
      7226 MEMB     22       SOPE     HY       HAL2     0.900000E-01   1.00800           0
      7227 MEMB     22       SOPE     O31      OSL     -0.490000       15.9994           0
      7228 MEMB     22       SOPE     C31      CL       0.900000       12.0110           0
      7229 MEMB     22       SOPE     O32      OBL     -0.630000       15.9994           0
      7230 MEMB     22       SOPE     C32      CTL2    -0.220000       12.0110           0
      7231 MEMB     22       SOPE     H2X      HAL2     0.900000E-01   1.00800           0
      7232 MEMB     22       SOPE     H2Y      HAL2     0.900000E-01   1.00800           0
      7233 MEMB     22       SOPE     C23      CTL2    -0.180000       12.0110           0
      7234 MEMB     22       SOPE     H3R      HAL2     0.900000E-01   1.00800           0
      7235 MEMB     22       SOPE     H3S      HAL2     0.900000E-01   1.00800           0
      7236 MEMB     22       SOPE     C24      CTL2    -0.180000       12.0110           0
      7237 MEMB     22       SOPE     H4R      HAL2     0.900000E-01   1.00800           0
      7238 MEMB     22       SOPE     H4S      HAL2     0.900000E-01   1.00800           0
      7239 MEMB     22       SOPE     C25      CTL2    -0.180000       12.0110           0
      7240 MEMB     22       SOPE     H5R      HAL2     0.900000E-01   1.00800           0
      7241 MEMB     22       SOPE     H5S      HAL2     0.900000E-01   1.00800           0
      7242 MEMB     22       SOPE     C26      CTL2    -0.180000       12.0110           0
      7243 MEMB     22       SOPE     H6R      HAL2     0.900000E-01   1.00800           0
      7244 MEMB     22       SOPE     H6S      HAL2     0.900000E-01   1.00800           0
      7245 MEMB     22       SOPE     C27      CTL2    -0.180000       12.0110           0
      7246 MEMB     22       SOPE     H7R      HAL2     0.900000E-01   1.00800           0
      7247 MEMB     22       SOPE     H7S      HAL2     0.900000E-01   1.00800           0
      7248 MEMB     22       SOPE     C28      CTL2    -0.180000       12.0110           0
      7249 MEMB     22       SOPE     H8R      HAL2     0.900000E-01   1.00800           0
      7250 MEMB     22       SOPE     H8S      HAL2     0.900000E-01   1.00800           0
      7251 MEMB     22       SOPE     C29      CEL1    -0.150000       12.0110           0
      7252 MEMB     22       SOPE     H91      HEL1     0.150000       1.00800           0
      7253 MEMB     22       SOPE     C210     CEL1    -0.150000       12.0110           0
      7254 MEMB     22       SOPE     H101     HEL1     0.150000       1.00800           0
      7255 MEMB     22       SOPE     C211     CTL2    -0.180000       12.0110           0
      7256 MEMB     22       SOPE     H11R     HAL2     0.900000E-01   1.00800           0
      7257 MEMB     22       SOPE     H11S     HAL2     0.900000E-01   1.00800           0
      7258 MEMB     22       SOPE     C212     CTL2    -0.180000       12.0110           0
      7259 MEMB     22       SOPE     H12R     HAL2     0.900000E-01   1.00800           0
      7260 MEMB     22       SOPE     H12S     HAL2     0.900000E-01   1.00800           0
      7261 MEMB     22       SOPE     C213     CTL2    -0.180000       12.0110           0
      7262 MEMB     22       SOPE     H13R     HAL2     0.900000E-01   1.00800           0
      7263 MEMB     22       SOPE     H13S     HAL2     0.900000E-01   1.00800           0
      7264 MEMB     22       SOPE     C214     CTL2    -0.180000       12.0110           0
      7265 MEMB     22       SOPE     H14R     HAL2     0.900000E-01   1.00800           0
      7266 MEMB     22       SOPE     H14S     HAL2     0.900000E-01   1.00800           0
      7267 MEMB     22       SOPE     C215     CTL2    -0.180000       12.0110           0
      7268 MEMB     22       SOPE     H15R     HAL2     0.900000E-01   1.00800           0
      7269 MEMB     22       SOPE     H15S     HAL2     0.900000E-01   1.00800           0
      7270 MEMB     22       SOPE     C216     CTL2    -0.180000       12.0110           0
      7271 MEMB     22       SOPE     H16R     HAL2     0.900000E-01   1.00800           0
      7272 MEMB     22       SOPE     H16S     HAL2     0.900000E-01   1.00800           0
      7273 MEMB     22       SOPE     C217     CTL2    -0.180000       12.0110           0
      7274 MEMB     22       SOPE     H17R     HAL2     0.900000E-01   1.00800           0
      7275 MEMB     22       SOPE     H17S     HAL2     0.900000E-01   1.00800           0
      7276 MEMB     22       SOPE     C218     CTL3    -0.270000       12.0110           0
      7277 MEMB     22       SOPE     H18R     HAL3     0.900000E-01   1.00800           0
      7278 MEMB     22       SOPE     H18S     HAL3     0.900000E-01   1.00800           0
      7279 MEMB     22       SOPE     H18T     HAL3     0.900000E-01   1.00800           0
      7280 MEMB     22       SOPE     C33      CTL2    -0.180000       12.0110           0
      7281 MEMB     22       SOPE     H3X      HAL2     0.900000E-01   1.00800           0
      7282 MEMB     22       SOPE     H3Y      HAL2     0.900000E-01   1.00800           0
      7283 MEMB     22       SOPE     C34      CTL2    -0.180000       12.0110           0
      7284 MEMB     22       SOPE     H4X      HAL2     0.900000E-01   1.00800           0
      7285 MEMB     22       SOPE     H4Y      HAL2     0.900000E-01   1.00800           0
      7286 MEMB     22       SOPE     C35      CTL2    -0.180000       12.0110           0
      7287 MEMB     22       SOPE     H5X      HAL2     0.900000E-01   1.00800           0
      7288 MEMB     22       SOPE     H5Y      HAL2     0.900000E-01   1.00800           0
      7289 MEMB     22       SOPE     C36      CTL2    -0.180000       12.0110           0
      7290 MEMB     22       SOPE     H6X      HAL2     0.900000E-01   1.00800           0
      7291 MEMB     22       SOPE     H6Y      HAL2     0.900000E-01   1.00800           0
      7292 MEMB     22       SOPE     C37      CTL2    -0.180000       12.0110           0
      7293 MEMB     22       SOPE     H7X      HAL2     0.900000E-01   1.00800           0
      7294 MEMB     22       SOPE     H7Y      HAL2     0.900000E-01   1.00800           0
      7295 MEMB     22       SOPE     C38      CTL2    -0.180000       12.0110           0
      7296 MEMB     22       SOPE     H8X      HAL2     0.900000E-01   1.00800           0
      7297 MEMB     22       SOPE     H8Y      HAL2     0.900000E-01   1.00800           0
      7298 MEMB     22       SOPE     C39      CTL2    -0.180000       12.0110           0
      7299 MEMB     22       SOPE     H9X      HAL2     0.900000E-01   1.00800           0
      7300 MEMB     22       SOPE     H9Y      HAL2     0.900000E-01   1.00800           0
      7301 MEMB     22       SOPE     C310     CTL2    -0.180000       12.0110           0
      7302 MEMB     22       SOPE     H10X     HAL2     0.900000E-01   1.00800           0
      7303 MEMB     22       SOPE     H10Y     HAL2     0.900000E-01   1.00800           0
      7304 MEMB     22       SOPE     C311     CTL2    -0.180000       12.0110           0
      7305 MEMB     22       SOPE     H11X     HAL2     0.900000E-01   1.00800           0
      7306 MEMB     22       SOPE     H11Y     HAL2     0.900000E-01   1.00800           0
      7307 MEMB     22       SOPE     C312     CTL2    -0.180000       12.0110           0
      7308 MEMB     22       SOPE     H12X     HAL2     0.900000E-01   1.00800           0
      7309 MEMB     22       SOPE     H12Y     HAL2     0.900000E-01   1.00800           0
      7310 MEMB     22       SOPE     C313     CTL2    -0.180000       12.0110           0
      7311 MEMB     22       SOPE     H13X     HAL2     0.900000E-01   1.00800           0
      7312 MEMB     22       SOPE     H13Y     HAL2     0.900000E-01   1.00800           0
      7313 MEMB     22       SOPE     C314     CTL2    -0.180000       12.0110           0
      7314 MEMB     22       SOPE     H14X     HAL2     0.900000E-01   1.00800           0
      7315 MEMB     22       SOPE     H14Y     HAL2     0.900000E-01   1.00800           0
      7316 MEMB     22       SOPE     C315     CTL2    -0.180000       12.0110           0
      7317 MEMB     22       SOPE     H15X     HAL2     0.900000E-01   1.00800           0
      7318 MEMB     22       SOPE     H15Y     HAL2     0.900000E-01   1.00800           0
      7319 MEMB     22       SOPE     C316     CTL2    -0.180000       12.0110           0
      7320 MEMB     22       SOPE     H16X     HAL2     0.900000E-01   1.00800           0
      7321 MEMB     22       SOPE     H16Y     HAL2     0.900000E-01   1.00800           0
      7322 MEMB     22       SOPE     C317     CTL2    -0.180000       12.0110           0
      7323 MEMB     22       SOPE     H17X     HAL2     0.900000E-01   1.00800           0
      7324 MEMB     22       SOPE     H17Y     HAL2     0.900000E-01   1.00800           0
      7325 MEMB     22       SOPE     C318     CTL3    -0.270000       12.0110           0
      7326 MEMB     22       SOPE     H18X     HAL3     0.900000E-01   1.00800           0
      7327 MEMB     22       SOPE     H18Y     HAL3     0.900000E-01   1.00800           0
      7328 MEMB     22       SOPE     H18Z     HAL3     0.900000E-01   1.00800           0
      7329 MEMB     49       SOPE     N        NH3L    -0.300000       14.0070           0
      7330 MEMB     49       SOPE     HN1      HCL      0.330000       1.00800           0
      7331 MEMB     49       SOPE     HN2      HCL      0.330000       1.00800           0
      7332 MEMB     49       SOPE     HN3      HCL      0.330000       1.00800           0
      7333 MEMB     49       SOPE     C12      CTL2     0.130000       12.0110           0
      7334 MEMB     49       SOPE     H12A     HAL2     0.900000E-01   1.00800           0
      7335 MEMB     49       SOPE     H12B     HAL2     0.900000E-01   1.00800           0
      7336 MEMB     49       SOPE     C11      CTL2    -0.800000E-01   12.0110           0
      7337 MEMB     49       SOPE     H11A     HAL2     0.900000E-01   1.00800           0
      7338 MEMB     49       SOPE     H11B     HAL2     0.900000E-01   1.00800           0
      7339 MEMB     49       SOPE     P        PL       1.500000       30.9740           0
      7340 MEMB     49       SOPE     O13      O2L     -0.780000       15.9994           0
      7341 MEMB     49       SOPE     O14      O2L     -0.780000       15.9994           0
      7342 MEMB     49       SOPE     O12      OSLP    -0.570000       15.9994           0
      7343 MEMB     49       SOPE     O11      OSLP    -0.570000       15.9994           0
      7344 MEMB     49       SOPE     C1       CTL2    -0.800000E-01   12.0110           0
      7345 MEMB     49       SOPE     HA       HAL2     0.900000E-01   1.00800           0
      7346 MEMB     49       SOPE     HB       HAL2     0.900000E-01   1.00800           0
      7347 MEMB     49       SOPE     C2       CTL1     0.170000       12.0110           0
      7348 MEMB     49       SOPE     HS       HAL1     0.900000E-01   1.00800           0
      7349 MEMB     49       SOPE     O21      OSL     -0.490000       15.9994           0
      7350 MEMB     49       SOPE     C21      CL       0.900000       12.0110           0
      7351 MEMB     49       SOPE     O22      OBL     -0.630000       15.9994           0
      7352 MEMB     49       SOPE     C22      CTL2    -0.220000       12.0110           0
      7353 MEMB     49       SOPE     H2R      HAL2     0.900000E-01   1.00800           0
      7354 MEMB     49       SOPE     H2S      HAL2     0.900000E-01   1.00800           0
      7355 MEMB     49       SOPE     C3       CTL2     0.800000E-01   12.0110           0
      7356 MEMB     49       SOPE     HX       HAL2     0.900000E-01   1.00800           0
      7357 MEMB     49       SOPE     HY       HAL2     0.900000E-01   1.00800           0
      7358 MEMB     49       SOPE     O31      OSL     -0.490000       15.9994           0
      7359 MEMB     49       SOPE     C31      CL       0.900000       12.0110           0
      7360 MEMB     49       SOPE     O32      OBL     -0.630000       15.9994           0
      7361 MEMB     49       SOPE     C32      CTL2    -0.220000       12.0110           0
      7362 MEMB     49       SOPE     H2X      HAL2     0.900000E-01   1.00800           0
      7363 MEMB     49       SOPE     H2Y      HAL2     0.900000E-01   1.00800           0
      7364 MEMB     49       SOPE     C23      CTL2    -0.180000       12.0110           0
      7365 MEMB     49       SOPE     H3R      HAL2     0.900000E-01   1.00800           0
      7366 MEMB     49       SOPE     H3S      HAL2     0.900000E-01   1.00800           0
      7367 MEMB     49       SOPE     C24      CTL2    -0.180000       12.0110           0
      7368 MEMB     49       SOPE     H4R      HAL2     0.900000E-01   1.00800           0
      7369 MEMB     49       SOPE     H4S      HAL2     0.900000E-01   1.00800           0
      7370 MEMB     49       SOPE     C25      CTL2    -0.180000       12.0110           0
      7371 MEMB     49       SOPE     H5R      HAL2     0.900000E-01   1.00800           0
      7372 MEMB     49       SOPE     H5S      HAL2     0.900000E-01   1.00800           0
      7373 MEMB     49       SOPE     C26      CTL2    -0.180000       12.0110           0
      7374 MEMB     49       SOPE     H6R      HAL2     0.900000E-01   1.00800           0
      7375 MEMB     49       SOPE     H6S      HAL2     0.900000E-01   1.00800           0
      7376 MEMB     49       SOPE     C27      CTL2    -0.180000       12.0110           0
      7377 MEMB     49       SOPE     H7R      HAL2     0.900000E-01   1.00800           0
      7378 MEMB     49       SOPE     H7S      HAL2     0.900000E-01   1.00800           0
      7379 MEMB     49       SOPE     C28      CTL2    -0.180000       12.0110           0
      7380 MEMB     49       SOPE     H8R      HAL2     0.900000E-01   1.00800           0
      7381 MEMB     49       SOPE     H8S      HAL2     0.900000E-01   1.00800           0
      7382 MEMB     49       SOPE     C29      CEL1    -0.150000       12.0110           0
      7383 MEMB     49       SOPE     H91      HEL1     0.150000       1.00800           0
      7384 MEMB     49       SOPE     C210     CEL1    -0.150000       12.0110           0
      7385 MEMB     49       SOPE     H101     HEL1     0.150000       1.00800           0
      7386 MEMB     49       SOPE     C211     CTL2    -0.180000       12.0110           0
      7387 MEMB     49       SOPE     H11R     HAL2     0.900000E-01   1.00800           0
      7388 MEMB     49       SOPE     H11S     HAL2     0.900000E-01   1.00800           0
      7389 MEMB     49       SOPE     C212     CTL2    -0.180000       12.0110           0
      7390 MEMB     49       SOPE     H12R     HAL2     0.900000E-01   1.00800           0
      7391 MEMB     49       SOPE     H12S     HAL2     0.900000E-01   1.00800           0
      7392 MEMB     49       SOPE     C213     CTL2    -0.180000       12.0110           0
      7393 MEMB     49       SOPE     H13R     HAL2     0.900000E-01   1.00800           0
      7394 MEMB     49       SOPE     H13S     HAL2     0.900000E-01   1.00800           0
      7395 MEMB     49       SOPE     C214     CTL2    -0.180000       12.0110           0
      7396 MEMB     49       SOPE     H14R     HAL2     0.900000E-01   1.00800           0
      7397 MEMB     49       SOPE     H14S     HAL2     0.900000E-01   1.00800           0
      7398 MEMB     49       SOPE     C215     CTL2    -0.180000       12.0110           0
      7399 MEMB     49       SOPE     H15R     HAL2     0.900000E-01   1.00800           0
      7400 MEMB     49       SOPE     H15S     HAL2     0.900000E-01   1.00800           0
      7401 MEMB     49       SOPE     C216     CTL2    -0.180000       12.0110           0
      7402 MEMB     49       SOPE     H16R     HAL2     0.900000E-01   1.00800           0
      7403 MEMB     49       SOPE     H16S     HAL2     0.900000E-01   1.00800           0
      7404 MEMB     49       SOPE     C217     CTL2    -0.180000       12.0110           0
      7405 MEMB     49       SOPE     H17R     HAL2     0.900000E-01   1.00800           0
      7406 MEMB     49       SOPE     H17S     HAL2     0.900000E-01   1.00800           0
      7407 MEMB     49       SOPE     C218     CTL3    -0.270000       12.0110           0
      7408 MEMB     49       SOPE     H18R     HAL3     0.900000E-01   1.00800           0
      7409 MEMB     49       SOPE     H18S     HAL3     0.900000E-01   1.00800           0
      7410 MEMB     49       SOPE     H18T     HAL3     0.900000E-01   1.00800           0
      7411 MEMB     49       SOPE     C33      CTL2    -0.180000       12.0110           0
      7412 MEMB     49       SOPE     H3X      HAL2     0.900000E-01   1.00800           0
      7413 MEMB     49       SOPE     H3Y      HAL2     0.900000E-01   1.00800           0
      7414 MEMB     49       SOPE     C34      CTL2    -0.180000       12.0110           0
      7415 MEMB     49       SOPE     H4X      HAL2     0.900000E-01   1.00800           0
      7416 MEMB     49       SOPE     H4Y      HAL2     0.900000E-01   1.00800           0
      7417 MEMB     49       SOPE     C35      CTL2    -0.180000       12.0110           0
      7418 MEMB     49       SOPE     H5X      HAL2     0.900000E-01   1.00800           0
      7419 MEMB     49       SOPE     H5Y      HAL2     0.900000E-01   1.00800           0
      7420 MEMB     49       SOPE     C36      CTL2    -0.180000       12.0110           0
      7421 MEMB     49       SOPE     H6X      HAL2     0.900000E-01   1.00800           0
      7422 MEMB     49       SOPE     H6Y      HAL2     0.900000E-01   1.00800           0
      7423 MEMB     49       SOPE     C37      CTL2    -0.180000       12.0110           0
      7424 MEMB     49       SOPE     H7X      HAL2     0.900000E-01   1.00800           0
      7425 MEMB     49       SOPE     H7Y      HAL2     0.900000E-01   1.00800           0
      7426 MEMB     49       SOPE     C38      CTL2    -0.180000       12.0110           0
      7427 MEMB     49       SOPE     H8X      HAL2     0.900000E-01   1.00800           0
      7428 MEMB     49       SOPE     H8Y      HAL2     0.900000E-01   1.00800           0
      7429 MEMB     49       SOPE     C39      CTL2    -0.180000       12.0110           0
      7430 MEMB     49       SOPE     H9X      HAL2     0.900000E-01   1.00800           0
      7431 MEMB     49       SOPE     H9Y      HAL2     0.900000E-01   1.00800           0
      7432 MEMB     49       SOPE     C310     CTL2    -0.180000       12.0110           0
      7433 MEMB     49       SOPE     H10X     HAL2     0.900000E-01   1.00800           0
      7434 MEMB     49       SOPE     H10Y     HAL2     0.900000E-01   1.00800           0
      7435 MEMB     49       SOPE     C311     CTL2    -0.180000       12.0110           0
      7436 MEMB     49       SOPE     H11X     HAL2     0.900000E-01   1.00800           0
      7437 MEMB     49       SOPE     H11Y     HAL2     0.900000E-01   1.00800           0
      7438 MEMB     49       SOPE     C312     CTL2    -0.180000       12.0110           0
      7439 MEMB     49       SOPE     H12X     HAL2     0.900000E-01   1.00800           0
      7440 MEMB     49       SOPE     H12Y     HAL2     0.900000E-01   1.00800           0
      7441 MEMB     49       SOPE     C313     CTL2    -0.180000       12.0110           0
      7442 MEMB     49       SOPE     H13X     HAL2     0.900000E-01   1.00800           0
      7443 MEMB     49       SOPE     H13Y     HAL2     0.900000E-01   1.00800           0
      7444 MEMB     49       SOPE     C314     CTL2    -0.180000       12.0110           0
      7445 MEMB     49       SOPE     H14X     HAL2     0.900000E-01   1.00800           0
      7446 MEMB     49       SOPE     H14Y     HAL2     0.900000E-01   1.00800           0
      7447 MEMB     49       SOPE     C315     CTL2    -0.180000       12.0110           0
      7448 MEMB     49       SOPE     H15X     HAL2     0.900000E-01   1.00800           0
      7449 MEMB     49       SOPE     H15Y     HAL2     0.900000E-01   1.00800           0
      7450 MEMB     49       SOPE     C316     CTL2    -0.180000       12.0110           0
      7451 MEMB     49       SOPE     H16X     HAL2     0.900000E-01   1.00800           0
      7452 MEMB     49       SOPE     H16Y     HAL2     0.900000E-01   1.00800           0
      7453 MEMB     49       SOPE     C317     CTL2    -0.180000       12.0110           0
      7454 MEMB     49       SOPE     H17X     HAL2     0.900000E-01   1.00800           0
      7455 MEMB     49       SOPE     H17Y     HAL2     0.900000E-01   1.00800           0
      7456 MEMB     49       SOPE     C318     CTL3    -0.270000       12.0110           0
      7457 MEMB     49       SOPE     H18X     HAL3     0.900000E-01   1.00800           0
      7458 MEMB     49       SOPE     H18Y     HAL3     0.900000E-01   1.00800           0
      7459 MEMB     49       SOPE     H18Z     HAL3     0.900000E-01   1.00800           0
      7460 MEMB     91       SOPE     N        NH3L    -0.300000       14.0070           0
      7461 MEMB     91       SOPE     HN1      HCL      0.330000       1.00800           0
      7462 MEMB     91       SOPE     HN2      HCL      0.330000       1.00800           0
      7463 MEMB     91       SOPE     HN3      HCL      0.330000       1.00800           0
      7464 MEMB     91       SOPE     C12      CTL2     0.130000       12.0110           0
      7465 MEMB     91       SOPE     H12A     HAL2     0.900000E-01   1.00800           0
      7466 MEMB     91       SOPE     H12B     HAL2     0.900000E-01   1.00800           0
      7467 MEMB     91       SOPE     C11      CTL2    -0.800000E-01   12.0110           0
      7468 MEMB     91       SOPE     H11A     HAL2     0.900000E-01   1.00800           0
      7469 MEMB     91       SOPE     H11B     HAL2     0.900000E-01   1.00800           0
      7470 MEMB     91       SOPE     P        PL       1.500000       30.9740           0
      7471 MEMB     91       SOPE     O13      O2L     -0.780000       15.9994           0
      7472 MEMB     91       SOPE     O14      O2L     -0.780000       15.9994           0
      7473 MEMB     91       SOPE     O12      OSLP    -0.570000       15.9994           0
      7474 MEMB     91       SOPE     O11      OSLP    -0.570000       15.9994           0
      7475 MEMB     91       SOPE     C1       CTL2    -0.800000E-01   12.0110           0
      7476 MEMB     91       SOPE     HA       HAL2     0.900000E-01   1.00800           0
      7477 MEMB     91       SOPE     HB       HAL2     0.900000E-01   1.00800           0
      7478 MEMB     91       SOPE     C2       CTL1     0.170000       12.0110           0
      7479 MEMB     91       SOPE     HS       HAL1     0.900000E-01   1.00800           0
      7480 MEMB     91       SOPE     O21      OSL     -0.490000       15.9994           0
      7481 MEMB     91       SOPE     C21      CL       0.900000       12.0110           0
      7482 MEMB     91       SOPE     O22      OBL     -0.630000       15.9994           0
      7483 MEMB     91       SOPE     C22      CTL2    -0.220000       12.0110           0
      7484 MEMB     91       SOPE     H2R      HAL2     0.900000E-01   1.00800           0
      7485 MEMB     91       SOPE     H2S      HAL2     0.900000E-01   1.00800           0
      7486 MEMB     91       SOPE     C3       CTL2     0.800000E-01   12.0110           0
      7487 MEMB     91       SOPE     HX       HAL2     0.900000E-01   1.00800           0
      7488 MEMB     91       SOPE     HY       HAL2     0.900000E-01   1.00800           0
      7489 MEMB     91       SOPE     O31      OSL     -0.490000       15.9994           0
      7490 MEMB     91       SOPE     C31      CL       0.900000       12.0110           0
      7491 MEMB     91       SOPE     O32      OBL     -0.630000       15.9994           0
      7492 MEMB     91       SOPE     C32      CTL2    -0.220000       12.0110           0
      7493 MEMB     91       SOPE     H2X      HAL2     0.900000E-01   1.00800           0
      7494 MEMB     91       SOPE     H2Y      HAL2     0.900000E-01   1.00800           0
      7495 MEMB     91       SOPE     C23      CTL2    -0.180000       12.0110           0
      7496 MEMB     91       SOPE     H3R      HAL2     0.900000E-01   1.00800           0
      7497 MEMB     91       SOPE     H3S      HAL2     0.900000E-01   1.00800           0
      7498 MEMB     91       SOPE     C24      CTL2    -0.180000       12.0110           0
      7499 MEMB     91       SOPE     H4R      HAL2     0.900000E-01   1.00800           0
      7500 MEMB     91       SOPE     H4S      HAL2     0.900000E-01   1.00800           0
      7501 MEMB     91       SOPE     C25      CTL2    -0.180000       12.0110           0
      7502 MEMB     91       SOPE     H5R      HAL2     0.900000E-01   1.00800           0
      7503 MEMB     91       SOPE     H5S      HAL2     0.900000E-01   1.00800           0
      7504 MEMB     91       SOPE     C26      CTL2    -0.180000       12.0110           0
      7505 MEMB     91       SOPE     H6R      HAL2     0.900000E-01   1.00800           0
      7506 MEMB     91       SOPE     H6S      HAL2     0.900000E-01   1.00800           0
      7507 MEMB     91       SOPE     C27      CTL2    -0.180000       12.0110           0
      7508 MEMB     91       SOPE     H7R      HAL2     0.900000E-01   1.00800           0
      7509 MEMB     91       SOPE     H7S      HAL2     0.900000E-01   1.00800           0
      7510 MEMB     91       SOPE     C28      CTL2    -0.180000       12.0110           0
      7511 MEMB     91       SOPE     H8R      HAL2     0.900000E-01   1.00800           0
      7512 MEMB     91       SOPE     H8S      HAL2     0.900000E-01   1.00800           0
      7513 MEMB     91       SOPE     C29      CEL1    -0.150000       12.0110           0
      7514 MEMB     91       SOPE     H91      HEL1     0.150000       1.00800           0
      7515 MEMB     91       SOPE     C210     CEL1    -0.150000       12.0110           0
      7516 MEMB     91       SOPE     H101     HEL1     0.150000       1.00800           0
      7517 MEMB     91       SOPE     C211     CTL2    -0.180000       12.0110           0
      7518 MEMB     91       SOPE     H11R     HAL2     0.900000E-01   1.00800           0
      7519 MEMB     91       SOPE     H11S     HAL2     0.900000E-01   1.00800           0
      7520 MEMB     91       SOPE     C212     CTL2    -0.180000       12.0110           0
      7521 MEMB     91       SOPE     H12R     HAL2     0.900000E-01   1.00800           0
      7522 MEMB     91       SOPE     H12S     HAL2     0.900000E-01   1.00800           0
      7523 MEMB     91       SOPE     C213     CTL2    -0.180000       12.0110           0
      7524 MEMB     91       SOPE     H13R     HAL2     0.900000E-01   1.00800           0
      7525 MEMB     91       SOPE     H13S     HAL2     0.900000E-01   1.00800           0
      7526 MEMB     91       SOPE     C214     CTL2    -0.180000       12.0110           0
      7527 MEMB     91       SOPE     H14R     HAL2     0.900000E-01   1.00800           0
      7528 MEMB     91       SOPE     H14S     HAL2     0.900000E-01   1.00800           0
      7529 MEMB     91       SOPE     C215     CTL2    -0.180000       12.0110           0
      7530 MEMB     91       SOPE     H15R     HAL2     0.900000E-01   1.00800           0
      7531 MEMB     91       SOPE     H15S     HAL2     0.900000E-01   1.00800           0
      7532 MEMB     91       SOPE     C216     CTL2    -0.180000       12.0110           0
      7533 MEMB     91       SOPE     H16R     HAL2     0.900000E-01   1.00800           0
      7534 MEMB     91       SOPE     H16S     HAL2     0.900000E-01   1.00800           0
      7535 MEMB     91       SOPE     C217     CTL2    -0.180000       12.0110           0
      7536 MEMB     91       SOPE     H17R     HAL2     0.900000E-01   1.00800           0
      7537 MEMB     91       SOPE     H17S     HAL2     0.900000E-01   1.00800           0
      7538 MEMB     91       SOPE     C218     CTL3    -0.270000       12.0110           0
      7539 MEMB     91       SOPE     H18R     HAL3     0.900000E-01   1.00800           0
      7540 MEMB     91       SOPE     H18S     HAL3     0.900000E-01   1.00800           0
      7541 MEMB     91       SOPE     H18T     HAL3     0.900000E-01   1.00800           0
      7542 MEMB     91       SOPE     C33      CTL2    -0.180000       12.0110           0
      7543 MEMB     91       SOPE     H3X      HAL2     0.900000E-01   1.00800           0
      7544 MEMB     91       SOPE     H3Y      HAL2     0.900000E-01   1.00800           0
      7545 MEMB     91       SOPE     C34      CTL2    -0.180000       12.0110           0
      7546 MEMB     91       SOPE     H4X      HAL2     0.900000E-01   1.00800           0
      7547 MEMB     91       SOPE     H4Y      HAL2     0.900000E-01   1.00800           0
      7548 MEMB     91       SOPE     C35      CTL2    -0.180000       12.0110           0
      7549 MEMB     91       SOPE     H5X      HAL2     0.900000E-01   1.00800           0
      7550 MEMB     91       SOPE     H5Y      HAL2     0.900000E-01   1.00800           0
      7551 MEMB     91       SOPE     C36      CTL2    -0.180000       12.0110           0
      7552 MEMB     91       SOPE     H6X      HAL2     0.900000E-01   1.00800           0
      7553 MEMB     91       SOPE     H6Y      HAL2     0.900000E-01   1.00800           0
      7554 MEMB     91       SOPE     C37      CTL2    -0.180000       12.0110           0
      7555 MEMB     91       SOPE     H7X      HAL2     0.900000E-01   1.00800           0
      7556 MEMB     91       SOPE     H7Y      HAL2     0.900000E-01   1.00800           0
      7557 MEMB     91       SOPE     C38      CTL2    -0.180000       12.0110           0
      7558 MEMB     91       SOPE     H8X      HAL2     0.900000E-01   1.00800           0
      7559 MEMB     91       SOPE     H8Y      HAL2     0.900000E-01   1.00800           0
      7560 MEMB     91       SOPE     C39      CTL2    -0.180000       12.0110           0
      7561 MEMB     91       SOPE     H9X      HAL2     0.900000E-01   1.00800           0
      7562 MEMB     91       SOPE     H9Y      HAL2     0.900000E-01   1.00800           0
      7563 MEMB     91       SOPE     C310     CTL2    -0.180000       12.0110           0
      7564 MEMB     91       SOPE     H10X     HAL2     0.900000E-01   1.00800           0
      7565 MEMB     91       SOPE     H10Y     HAL2     0.900000E-01   1.00800           0
      7566 MEMB     91       SOPE     C311     CTL2    -0.180000       12.0110           0
      7567 MEMB     91       SOPE     H11X     HAL2     0.900000E-01   1.00800           0
      7568 MEMB     91       SOPE     H11Y     HAL2     0.900000E-01   1.00800           0
      7569 MEMB     91       SOPE     C312     CTL2    -0.180000       12.0110           0
      7570 MEMB     91       SOPE     H12X     HAL2     0.900000E-01   1.00800           0
      7571 MEMB     91       SOPE     H12Y     HAL2     0.900000E-01   1.00800           0
      7572 MEMB     91       SOPE     C313     CTL2    -0.180000       12.0110           0
      7573 MEMB     91       SOPE     H13X     HAL2     0.900000E-01   1.00800           0
      7574 MEMB     91       SOPE     H13Y     HAL2     0.900000E-01   1.00800           0
      7575 MEMB     91       SOPE     C314     CTL2    -0.180000       12.0110           0
      7576 MEMB     91       SOPE     H14X     HAL2     0.900000E-01   1.00800           0
      7577 MEMB     91       SOPE     H14Y     HAL2     0.900000E-01   1.00800           0
      7578 MEMB     91       SOPE     C315     CTL2    -0.180000       12.0110           0
      7579 MEMB     91       SOPE     H15X     HAL2     0.900000E-01   1.00800           0
      7580 MEMB     91       SOPE     H15Y     HAL2     0.900000E-01   1.00800           0
      7581 MEMB     91       SOPE     C316     CTL2    -0.180000       12.0110           0
      7582 MEMB     91       SOPE     H16X     HAL2     0.900000E-01   1.00800           0
      7583 MEMB     91       SOPE     H16Y     HAL2     0.900000E-01   1.00800           0
      7584 MEMB     91       SOPE     C317     CTL2    -0.180000       12.0110           0
      7585 MEMB     91       SOPE     H17X     HAL2     0.900000E-01   1.00800           0
      7586 MEMB     91       SOPE     H17Y     HAL2     0.900000E-01   1.00800           0
      7587 MEMB     91       SOPE     C318     CTL3    -0.270000       12.0110           0
      7588 MEMB     91       SOPE     H18X     HAL3     0.900000E-01   1.00800           0
      7589 MEMB     91       SOPE     H18Y     HAL3     0.900000E-01   1.00800           0
      7590 MEMB     91       SOPE     H18Z     HAL3     0.900000E-01   1.00800           0
      7591 MEMB     100      SOPE     N        NH3L    -0.300000       14.0070           0
      7592 MEMB     100      SOPE     HN1      HCL      0.330000       1.00800           0
      7593 MEMB     100      SOPE     HN2      HCL      0.330000       1.00800           0
      7594 MEMB     100      SOPE     HN3      HCL      0.330000       1.00800           0
      7595 MEMB     100      SOPE     C12      CTL2     0.130000       12.0110           0
      7596 MEMB     100      SOPE     H12A     HAL2     0.900000E-01   1.00800           0
      7597 MEMB     100      SOPE     H12B     HAL2     0.900000E-01   1.00800           0
      7598 MEMB     100      SOPE     C11      CTL2    -0.800000E-01   12.0110           0
      7599 MEMB     100      SOPE     H11A     HAL2     0.900000E-01   1.00800           0
      7600 MEMB     100      SOPE     H11B     HAL2     0.900000E-01   1.00800           0
      7601 MEMB     100      SOPE     P        PL       1.500000       30.9740           0
      7602 MEMB     100      SOPE     O13      O2L     -0.780000       15.9994           0
      7603 MEMB     100      SOPE     O14      O2L     -0.780000       15.9994           0
      7604 MEMB     100      SOPE     O12      OSLP    -0.570000       15.9994           0
      7605 MEMB     100      SOPE     O11      OSLP    -0.570000       15.9994           0
      7606 MEMB     100      SOPE     C1       CTL2    -0.800000E-01   12.0110           0
      7607 MEMB     100      SOPE     HA       HAL2     0.900000E-01   1.00800           0
      7608 MEMB     100      SOPE     HB       HAL2     0.900000E-01   1.00800           0
      7609 MEMB     100      SOPE     C2       CTL1     0.170000       12.0110           0
      7610 MEMB     100      SOPE     HS       HAL1     0.900000E-01   1.00800           0
      7611 MEMB     100      SOPE     O21      OSL     -0.490000       15.9994           0
      7612 MEMB     100      SOPE     C21      CL       0.900000       12.0110           0
      7613 MEMB     100      SOPE     O22      OBL     -0.630000       15.9994           0
      7614 MEMB     100      SOPE     C22      CTL2    -0.220000       12.0110           0
      7615 MEMB     100      SOPE     H2R      HAL2     0.900000E-01   1.00800           0
      7616 MEMB     100      SOPE     H2S      HAL2     0.900000E-01   1.00800           0
      7617 MEMB     100      SOPE     C3       CTL2     0.800000E-01   12.0110           0
      7618 MEMB     100      SOPE     HX       HAL2     0.900000E-01   1.00800           0
      7619 MEMB     100      SOPE     HY       HAL2     0.900000E-01   1.00800           0
      7620 MEMB     100      SOPE     O31      OSL     -0.490000       15.9994           0
      7621 MEMB     100      SOPE     C31      CL       0.900000       12.0110           0
      7622 MEMB     100      SOPE     O32      OBL     -0.630000       15.9994           0
      7623 MEMB     100      SOPE     C32      CTL2    -0.220000       12.0110           0
      7624 MEMB     100      SOPE     H2X      HAL2     0.900000E-01   1.00800           0
      7625 MEMB     100      SOPE     H2Y      HAL2     0.900000E-01   1.00800           0
      7626 MEMB     100      SOPE     C23      CTL2    -0.180000       12.0110           0
      7627 MEMB     100      SOPE     H3R      HAL2     0.900000E-01   1.00800           0
      7628 MEMB     100      SOPE     H3S      HAL2     0.900000E-01   1.00800           0
      7629 MEMB     100      SOPE     C24      CTL2    -0.180000       12.0110           0
      7630 MEMB     100      SOPE     H4R      HAL2     0.900000E-01   1.00800           0
      7631 MEMB     100      SOPE     H4S      HAL2     0.900000E-01   1.00800           0
      7632 MEMB     100      SOPE     C25      CTL2    -0.180000       12.0110           0
      7633 MEMB     100      SOPE     H5R      HAL2     0.900000E-01   1.00800           0
      7634 MEMB     100      SOPE     H5S      HAL2     0.900000E-01   1.00800           0
      7635 MEMB     100      SOPE     C26      CTL2    -0.180000       12.0110           0
      7636 MEMB     100      SOPE     H6R      HAL2     0.900000E-01   1.00800           0
      7637 MEMB     100      SOPE     H6S      HAL2     0.900000E-01   1.00800           0
      7638 MEMB     100      SOPE     C27      CTL2    -0.180000       12.0110           0
      7639 MEMB     100      SOPE     H7R      HAL2     0.900000E-01   1.00800           0
      7640 MEMB     100      SOPE     H7S      HAL2     0.900000E-01   1.00800           0
      7641 MEMB     100      SOPE     C28      CTL2    -0.180000       12.0110           0
      7642 MEMB     100      SOPE     H8R      HAL2     0.900000E-01   1.00800           0
      7643 MEMB     100      SOPE     H8S      HAL2     0.900000E-01   1.00800           0
      7644 MEMB     100      SOPE     C29      CEL1    -0.150000       12.0110           0
      7645 MEMB     100      SOPE     H91      HEL1     0.150000       1.00800           0
      7646 MEMB     100      SOPE     C210     CEL1    -0.150000       12.0110           0
      7647 MEMB     100      SOPE     H101     HEL1     0.150000       1.00800           0
      7648 MEMB     100      SOPE     C211     CTL2    -0.180000       12.0110           0
      7649 MEMB     100      SOPE     H11R     HAL2     0.900000E-01   1.00800           0
      7650 MEMB     100      SOPE     H11S     HAL2     0.900000E-01   1.00800           0
      7651 MEMB     100      SOPE     C212     CTL2    -0.180000       12.0110           0
      7652 MEMB     100      SOPE     H12R     HAL2     0.900000E-01   1.00800           0
      7653 MEMB     100      SOPE     H12S     HAL2     0.900000E-01   1.00800           0
      7654 MEMB     100      SOPE     C213     CTL2    -0.180000       12.0110           0
      7655 MEMB     100      SOPE     H13R     HAL2     0.900000E-01   1.00800           0
      7656 MEMB     100      SOPE     H13S     HAL2     0.900000E-01   1.00800           0
      7657 MEMB     100      SOPE     C214     CTL2    -0.180000       12.0110           0
      7658 MEMB     100      SOPE     H14R     HAL2     0.900000E-01   1.00800           0
      7659 MEMB     100      SOPE     H14S     HAL2     0.900000E-01   1.00800           0
      7660 MEMB     100      SOPE     C215     CTL2    -0.180000       12.0110           0
      7661 MEMB     100      SOPE     H15R     HAL2     0.900000E-01   1.00800           0
      7662 MEMB     100      SOPE     H15S     HAL2     0.900000E-01   1.00800           0
      7663 MEMB     100      SOPE     C216     CTL2    -0.180000       12.0110           0
      7664 MEMB     100      SOPE     H16R     HAL2     0.900000E-01   1.00800           0
      7665 MEMB     100      SOPE     H16S     HAL2     0.900000E-01   1.00800           0
      7666 MEMB     100      SOPE     C217     CTL2    -0.180000       12.0110           0
      7667 MEMB     100      SOPE     H17R     HAL2     0.900000E-01   1.00800           0
      7668 MEMB     100      SOPE     H17S     HAL2     0.900000E-01   1.00800           0
      7669 MEMB     100      SOPE     C218     CTL3    -0.270000       12.0110           0
      7670 MEMB     100      SOPE     H18R     HAL3     0.900000E-01   1.00800           0
      7671 MEMB     100      SOPE     H18S     HAL3     0.900000E-01   1.00800           0
      7672 MEMB     100      SOPE     H18T     HAL3     0.900000E-01   1.00800           0
      7673 MEMB     100      SOPE     C33      CTL2    -0.180000       12.0110           0
      7674 MEMB     100      SOPE     H3X      HAL2     0.900000E-01   1.00800           0
      7675 MEMB     100      SOPE     H3Y      HAL2     0.900000E-01   1.00800           0
      7676 MEMB     100      SOPE     C34      CTL2    -0.180000       12.0110           0
      7677 MEMB     100      SOPE     H4X      HAL2     0.900000E-01   1.00800           0
      7678 MEMB     100      SOPE     H4Y      HAL2     0.900000E-01   1.00800           0
      7679 MEMB     100      SOPE     C35      CTL2    -0.180000       12.0110           0
      7680 MEMB     100      SOPE     H5X      HAL2     0.900000E-01   1.00800           0
      7681 MEMB     100      SOPE     H5Y      HAL2     0.900000E-01   1.00800           0
      7682 MEMB     100      SOPE     C36      CTL2    -0.180000       12.0110           0
      7683 MEMB     100      SOPE     H6X      HAL2     0.900000E-01   1.00800           0
      7684 MEMB     100      SOPE     H6Y      HAL2     0.900000E-01   1.00800           0
      7685 MEMB     100      SOPE     C37      CTL2    -0.180000       12.0110           0
      7686 MEMB     100      SOPE     H7X      HAL2     0.900000E-01   1.00800           0
      7687 MEMB     100      SOPE     H7Y      HAL2     0.900000E-01   1.00800           0
      7688 MEMB     100      SOPE     C38      CTL2    -0.180000       12.0110           0
      7689 MEMB     100      SOPE     H8X      HAL2     0.900000E-01   1.00800           0
      7690 MEMB     100      SOPE     H8Y      HAL2     0.900000E-01   1.00800           0
      7691 MEMB     100      SOPE     C39      CTL2    -0.180000       12.0110           0
      7692 MEMB     100      SOPE     H9X      HAL2     0.900000E-01   1.00800           0
      7693 MEMB     100      SOPE     H9Y      HAL2     0.900000E-01   1.00800           0
      7694 MEMB     100      SOPE     C310     CTL2    -0.180000       12.0110           0
      7695 MEMB     100      SOPE     H10X     HAL2     0.900000E-01   1.00800           0
      7696 MEMB     100      SOPE     H10Y     HAL2     0.900000E-01   1.00800           0
      7697 MEMB     100      SOPE     C311     CTL2    -0.180000       12.0110           0
      7698 MEMB     100      SOPE     H11X     HAL2     0.900000E-01   1.00800           0
      7699 MEMB     100      SOPE     H11Y     HAL2     0.900000E-01   1.00800           0
      7700 MEMB     100      SOPE     C312     CTL2    -0.180000       12.0110           0
      7701 MEMB     100      SOPE     H12X     HAL2     0.900000E-01   1.00800           0
      7702 MEMB     100      SOPE     H12Y     HAL2     0.900000E-01   1.00800           0
      7703 MEMB     100      SOPE     C313     CTL2    -0.180000       12.0110           0
      7704 MEMB     100      SOPE     H13X     HAL2     0.900000E-01   1.00800           0
      7705 MEMB     100      SOPE     H13Y     HAL2     0.900000E-01   1.00800           0
      7706 MEMB     100      SOPE     C314     CTL2    -0.180000       12.0110           0
      7707 MEMB     100      SOPE     H14X     HAL2     0.900000E-01   1.00800           0
      7708 MEMB     100      SOPE     H14Y     HAL2     0.900000E-01   1.00800           0
      7709 MEMB     100      SOPE     C315     CTL2    -0.180000       12.0110           0
      7710 MEMB     100      SOPE     H15X     HAL2     0.900000E-01   1.00800           0
      7711 MEMB     100      SOPE     H15Y     HAL2     0.900000E-01   1.00800           0
      7712 MEMB     100      SOPE     C316     CTL2    -0.180000       12.0110           0
      7713 MEMB     100      SOPE     H16X     HAL2     0.900000E-01   1.00800           0
      7714 MEMB     100      SOPE     H16Y     HAL2     0.900000E-01   1.00800           0
      7715 MEMB     100      SOPE     C317     CTL2    -0.180000       12.0110           0
      7716 MEMB     100      SOPE     H17X     HAL2     0.900000E-01   1.00800           0
      7717 MEMB     100      SOPE     H17Y     HAL2     0.900000E-01   1.00800           0
      7718 MEMB     100      SOPE     C318     CTL3    -0.270000       12.0110           0
      7719 MEMB     100      SOPE     H18X     HAL3     0.900000E-01   1.00800           0
      7720 MEMB     100      SOPE     H18Y     HAL3     0.900000E-01   1.00800           0
      7721 MEMB     100      SOPE     H18Z     HAL3     0.900000E-01   1.00800           0
      7722 MEMB     106      SOPE     N        NH3L    -0.300000       14.0070           0
      7723 MEMB     106      SOPE     HN1      HCL      0.330000       1.00800           0
      7724 MEMB     106      SOPE     HN2      HCL      0.330000       1.00800           0
      7725 MEMB     106      SOPE     HN3      HCL      0.330000       1.00800           0
      7726 MEMB     106      SOPE     C12      CTL2     0.130000       12.0110           0
      7727 MEMB     106      SOPE     H12A     HAL2     0.900000E-01   1.00800           0
      7728 MEMB     106      SOPE     H12B     HAL2     0.900000E-01   1.00800           0
      7729 MEMB     106      SOPE     C11      CTL2    -0.800000E-01   12.0110           0
      7730 MEMB     106      SOPE     H11A     HAL2     0.900000E-01   1.00800           0
      7731 MEMB     106      SOPE     H11B     HAL2     0.900000E-01   1.00800           0
      7732 MEMB     106      SOPE     P        PL       1.500000       30.9740           0
      7733 MEMB     106      SOPE     O13      O2L     -0.780000       15.9994           0
      7734 MEMB     106      SOPE     O14      O2L     -0.780000       15.9994           0
      7735 MEMB     106      SOPE     O12      OSLP    -0.570000       15.9994           0
      7736 MEMB     106      SOPE     O11      OSLP    -0.570000       15.9994           0
      7737 MEMB     106      SOPE     C1       CTL2    -0.800000E-01   12.0110           0
      7738 MEMB     106      SOPE     HA       HAL2     0.900000E-01   1.00800           0
      7739 MEMB     106      SOPE     HB       HAL2     0.900000E-01   1.00800           0
      7740 MEMB     106      SOPE     C2       CTL1     0.170000       12.0110           0
      7741 MEMB     106      SOPE     HS       HAL1     0.900000E-01   1.00800           0
      7742 MEMB     106      SOPE     O21      OSL     -0.490000       15.9994           0
      7743 MEMB     106      SOPE     C21      CL       0.900000       12.0110           0
      7744 MEMB     106      SOPE     O22      OBL     -0.630000       15.9994           0
      7745 MEMB     106      SOPE     C22      CTL2    -0.220000       12.0110           0
      7746 MEMB     106      SOPE     H2R      HAL2     0.900000E-01   1.00800           0
      7747 MEMB     106      SOPE     H2S      HAL2     0.900000E-01   1.00800           0
      7748 MEMB     106      SOPE     C3       CTL2     0.800000E-01   12.0110           0
      7749 MEMB     106      SOPE     HX       HAL2     0.900000E-01   1.00800           0
      7750 MEMB     106      SOPE     HY       HAL2     0.900000E-01   1.00800           0
      7751 MEMB     106      SOPE     O31      OSL     -0.490000       15.9994           0
      7752 MEMB     106      SOPE     C31      CL       0.900000       12.0110           0
      7753 MEMB     106      SOPE     O32      OBL     -0.630000       15.9994           0
      7754 MEMB     106      SOPE     C32      CTL2    -0.220000       12.0110           0
      7755 MEMB     106      SOPE     H2X      HAL2     0.900000E-01   1.00800           0
      7756 MEMB     106      SOPE     H2Y      HAL2     0.900000E-01   1.00800           0
      7757 MEMB     106      SOPE     C23      CTL2    -0.180000       12.0110           0
      7758 MEMB     106      SOPE     H3R      HAL2     0.900000E-01   1.00800           0
      7759 MEMB     106      SOPE     H3S      HAL2     0.900000E-01   1.00800           0
      7760 MEMB     106      SOPE     C24      CTL2    -0.180000       12.0110           0
      7761 MEMB     106      SOPE     H4R      HAL2     0.900000E-01   1.00800           0
      7762 MEMB     106      SOPE     H4S      HAL2     0.900000E-01   1.00800           0
      7763 MEMB     106      SOPE     C25      CTL2    -0.180000       12.0110           0
      7764 MEMB     106      SOPE     H5R      HAL2     0.900000E-01   1.00800           0
      7765 MEMB     106      SOPE     H5S      HAL2     0.900000E-01   1.00800           0
      7766 MEMB     106      SOPE     C26      CTL2    -0.180000       12.0110           0
      7767 MEMB     106      SOPE     H6R      HAL2     0.900000E-01   1.00800           0
      7768 MEMB     106      SOPE     H6S      HAL2     0.900000E-01   1.00800           0
      7769 MEMB     106      SOPE     C27      CTL2    -0.180000       12.0110           0
      7770 MEMB     106      SOPE     H7R      HAL2     0.900000E-01   1.00800           0
      7771 MEMB     106      SOPE     H7S      HAL2     0.900000E-01   1.00800           0
      7772 MEMB     106      SOPE     C28      CTL2    -0.180000       12.0110           0
      7773 MEMB     106      SOPE     H8R      HAL2     0.900000E-01   1.00800           0
      7774 MEMB     106      SOPE     H8S      HAL2     0.900000E-01   1.00800           0
      7775 MEMB     106      SOPE     C29      CEL1    -0.150000       12.0110           0
      7776 MEMB     106      SOPE     H91      HEL1     0.150000       1.00800           0
      7777 MEMB     106      SOPE     C210     CEL1    -0.150000       12.0110           0
      7778 MEMB     106      SOPE     H101     HEL1     0.150000       1.00800           0
      7779 MEMB     106      SOPE     C211     CTL2    -0.180000       12.0110           0
      7780 MEMB     106      SOPE     H11R     HAL2     0.900000E-01   1.00800           0
      7781 MEMB     106      SOPE     H11S     HAL2     0.900000E-01   1.00800           0
      7782 MEMB     106      SOPE     C212     CTL2    -0.180000       12.0110           0
      7783 MEMB     106      SOPE     H12R     HAL2     0.900000E-01   1.00800           0
      7784 MEMB     106      SOPE     H12S     HAL2     0.900000E-01   1.00800           0
      7785 MEMB     106      SOPE     C213     CTL2    -0.180000       12.0110           0
      7786 MEMB     106      SOPE     H13R     HAL2     0.900000E-01   1.00800           0
      7787 MEMB     106      SOPE     H13S     HAL2     0.900000E-01   1.00800           0
      7788 MEMB     106      SOPE     C214     CTL2    -0.180000       12.0110           0
      7789 MEMB     106      SOPE     H14R     HAL2     0.900000E-01   1.00800           0
      7790 MEMB     106      SOPE     H14S     HAL2     0.900000E-01   1.00800           0
      7791 MEMB     106      SOPE     C215     CTL2    -0.180000       12.0110           0
      7792 MEMB     106      SOPE     H15R     HAL2     0.900000E-01   1.00800           0
      7793 MEMB     106      SOPE     H15S     HAL2     0.900000E-01   1.00800           0
      7794 MEMB     106      SOPE     C216     CTL2    -0.180000       12.0110           0
      7795 MEMB     106      SOPE     H16R     HAL2     0.900000E-01   1.00800           0
      7796 MEMB     106      SOPE     H16S     HAL2     0.900000E-01   1.00800           0
      7797 MEMB     106      SOPE     C217     CTL2    -0.180000       12.0110           0
      7798 MEMB     106      SOPE     H17R     HAL2     0.900000E-01   1.00800           0
      7799 MEMB     106      SOPE     H17S     HAL2     0.900000E-01   1.00800           0
      7800 MEMB     106      SOPE     C218     CTL3    -0.270000       12.0110           0
      7801 MEMB     106      SOPE     H18R     HAL3     0.900000E-01   1.00800           0
      7802 MEMB     106      SOPE     H18S     HAL3     0.900000E-01   1.00800           0
      7803 MEMB     106      SOPE     H18T     HAL3     0.900000E-01   1.00800           0
      7804 MEMB     106      SOPE     C33      CTL2    -0.180000       12.0110           0
      7805 MEMB     106      SOPE     H3X      HAL2     0.900000E-01   1.00800           0
      7806 MEMB     106      SOPE     H3Y      HAL2     0.900000E-01   1.00800           0
      7807 MEMB     106      SOPE     C34      CTL2    -0.180000       12.0110           0
      7808 MEMB     106      SOPE     H4X      HAL2     0.900000E-01   1.00800           0
      7809 MEMB     106      SOPE     H4Y      HAL2     0.900000E-01   1.00800           0
      7810 MEMB     106      SOPE     C35      CTL2    -0.180000       12.0110           0
      7811 MEMB     106      SOPE     H5X      HAL2     0.900000E-01   1.00800           0
      7812 MEMB     106      SOPE     H5Y      HAL2     0.900000E-01   1.00800           0
      7813 MEMB     106      SOPE     C36      CTL2    -0.180000       12.0110           0
      7814 MEMB     106      SOPE     H6X      HAL2     0.900000E-01   1.00800           0
      7815 MEMB     106      SOPE     H6Y      HAL2     0.900000E-01   1.00800           0
      7816 MEMB     106      SOPE     C37      CTL2    -0.180000       12.0110           0
      7817 MEMB     106      SOPE     H7X      HAL2     0.900000E-01   1.00800           0
      7818 MEMB     106      SOPE     H7Y      HAL2     0.900000E-01   1.00800           0
      7819 MEMB     106      SOPE     C38      CTL2    -0.180000       12.0110           0
      7820 MEMB     106      SOPE     H8X      HAL2     0.900000E-01   1.00800           0
      7821 MEMB     106      SOPE     H8Y      HAL2     0.900000E-01   1.00800           0
      7822 MEMB     106      SOPE     C39      CTL2    -0.180000       12.0110           0
      7823 MEMB     106      SOPE     H9X      HAL2     0.900000E-01   1.00800           0
      7824 MEMB     106      SOPE     H9Y      HAL2     0.900000E-01   1.00800           0
      7825 MEMB     106      SOPE     C310     CTL2    -0.180000       12.0110           0
      7826 MEMB     106      SOPE     H10X     HAL2     0.900000E-01   1.00800           0
      7827 MEMB     106      SOPE     H10Y     HAL2     0.900000E-01   1.00800           0
      7828 MEMB     106      SOPE     C311     CTL2    -0.180000       12.0110           0
      7829 MEMB     106      SOPE     H11X     HAL2     0.900000E-01   1.00800           0
      7830 MEMB     106      SOPE     H11Y     HAL2     0.900000E-01   1.00800           0
      7831 MEMB     106      SOPE     C312     CTL2    -0.180000       12.0110           0
      7832 MEMB     106      SOPE     H12X     HAL2     0.900000E-01   1.00800           0
      7833 MEMB     106      SOPE     H12Y     HAL2     0.900000E-01   1.00800           0
      7834 MEMB     106      SOPE     C313     CTL2    -0.180000       12.0110           0
      7835 MEMB     106      SOPE     H13X     HAL2     0.900000E-01   1.00800           0
      7836 MEMB     106      SOPE     H13Y     HAL2     0.900000E-01   1.00800           0
      7837 MEMB     106      SOPE     C314     CTL2    -0.180000       12.0110           0
      7838 MEMB     106      SOPE     H14X     HAL2     0.900000E-01   1.00800           0
      7839 MEMB     106      SOPE     H14Y     HAL2     0.900000E-01   1.00800           0
      7840 MEMB     106      SOPE     C315     CTL2    -0.180000       12.0110           0
      7841 MEMB     106      SOPE     H15X     HAL2     0.900000E-01   1.00800           0
      7842 MEMB     106      SOPE     H15Y     HAL2     0.900000E-01   1.00800           0
      7843 MEMB     106      SOPE     C316     CTL2    -0.180000       12.0110           0
      7844 MEMB     106      SOPE     H16X     HAL2     0.900000E-01   1.00800           0
      7845 MEMB     106      SOPE     H16Y     HAL2     0.900000E-01   1.00800           0
      7846 MEMB     106      SOPE     C317     CTL2    -0.180000       12.0110           0
      7847 MEMB     106      SOPE     H17X     HAL2     0.900000E-01   1.00800           0
      7848 MEMB     106      SOPE     H17Y     HAL2     0.900000E-01   1.00800           0
      7849 MEMB     106      SOPE     C318     CTL3    -0.270000       12.0110           0
      7850 MEMB     106      SOPE     H18X     HAL3     0.900000E-01   1.00800           0
      7851 MEMB     106      SOPE     H18Y     HAL3     0.900000E-01   1.00800           0
      7852 MEMB     106      SOPE     H18Z     HAL3     0.900000E-01   1.00800           0
      7853 MEMB     116      SOPE     N        NH3L    -0.300000       14.0070           0
      7854 MEMB     116      SOPE     HN1      HCL      0.330000       1.00800           0
      7855 MEMB     116      SOPE     HN2      HCL      0.330000       1.00800           0
      7856 MEMB     116      SOPE     HN3      HCL      0.330000       1.00800           0
      7857 MEMB     116      SOPE     C12      CTL2     0.130000       12.0110           0
      7858 MEMB     116      SOPE     H12A     HAL2     0.900000E-01   1.00800           0
      7859 MEMB     116      SOPE     H12B     HAL2     0.900000E-01   1.00800           0
      7860 MEMB     116      SOPE     C11      CTL2    -0.800000E-01   12.0110           0
      7861 MEMB     116      SOPE     H11A     HAL2     0.900000E-01   1.00800           0
      7862 MEMB     116      SOPE     H11B     HAL2     0.900000E-01   1.00800           0
      7863 MEMB     116      SOPE     P        PL       1.500000       30.9740           0
      7864 MEMB     116      SOPE     O13      O2L     -0.780000       15.9994           0
      7865 MEMB     116      SOPE     O14      O2L     -0.780000       15.9994           0
      7866 MEMB     116      SOPE     O12      OSLP    -0.570000       15.9994           0
      7867 MEMB     116      SOPE     O11      OSLP    -0.570000       15.9994           0
      7868 MEMB     116      SOPE     C1       CTL2    -0.800000E-01   12.0110           0
      7869 MEMB     116      SOPE     HA       HAL2     0.900000E-01   1.00800           0
      7870 MEMB     116      SOPE     HB       HAL2     0.900000E-01   1.00800           0
      7871 MEMB     116      SOPE     C2       CTL1     0.170000       12.0110           0
      7872 MEMB     116      SOPE     HS       HAL1     0.900000E-01   1.00800           0
      7873 MEMB     116      SOPE     O21      OSL     -0.490000       15.9994           0
      7874 MEMB     116      SOPE     C21      CL       0.900000       12.0110           0
      7875 MEMB     116      SOPE     O22      OBL     -0.630000       15.9994           0
      7876 MEMB     116      SOPE     C22      CTL2    -0.220000       12.0110           0
      7877 MEMB     116      SOPE     H2R      HAL2     0.900000E-01   1.00800           0
      7878 MEMB     116      SOPE     H2S      HAL2     0.900000E-01   1.00800           0
      7879 MEMB     116      SOPE     C3       CTL2     0.800000E-01   12.0110           0
      7880 MEMB     116      SOPE     HX       HAL2     0.900000E-01   1.00800           0
      7881 MEMB     116      SOPE     HY       HAL2     0.900000E-01   1.00800           0
      7882 MEMB     116      SOPE     O31      OSL     -0.490000       15.9994           0
      7883 MEMB     116      SOPE     C31      CL       0.900000       12.0110           0
      7884 MEMB     116      SOPE     O32      OBL     -0.630000       15.9994           0
      7885 MEMB     116      SOPE     C32      CTL2    -0.220000       12.0110           0
      7886 MEMB     116      SOPE     H2X      HAL2     0.900000E-01   1.00800           0
      7887 MEMB     116      SOPE     H2Y      HAL2     0.900000E-01   1.00800           0
      7888 MEMB     116      SOPE     C23      CTL2    -0.180000       12.0110           0
      7889 MEMB     116      SOPE     H3R      HAL2     0.900000E-01   1.00800           0
      7890 MEMB     116      SOPE     H3S      HAL2     0.900000E-01   1.00800           0
      7891 MEMB     116      SOPE     C24      CTL2    -0.180000       12.0110           0
      7892 MEMB     116      SOPE     H4R      HAL2     0.900000E-01   1.00800           0
      7893 MEMB     116      SOPE     H4S      HAL2     0.900000E-01   1.00800           0
      7894 MEMB     116      SOPE     C25      CTL2    -0.180000       12.0110           0
      7895 MEMB     116      SOPE     H5R      HAL2     0.900000E-01   1.00800           0
      7896 MEMB     116      SOPE     H5S      HAL2     0.900000E-01   1.00800           0
      7897 MEMB     116      SOPE     C26      CTL2    -0.180000       12.0110           0
      7898 MEMB     116      SOPE     H6R      HAL2     0.900000E-01   1.00800           0
      7899 MEMB     116      SOPE     H6S      HAL2     0.900000E-01   1.00800           0
      7900 MEMB     116      SOPE     C27      CTL2    -0.180000       12.0110           0
      7901 MEMB     116      SOPE     H7R      HAL2     0.900000E-01   1.00800           0
      7902 MEMB     116      SOPE     H7S      HAL2     0.900000E-01   1.00800           0
      7903 MEMB     116      SOPE     C28      CTL2    -0.180000       12.0110           0
      7904 MEMB     116      SOPE     H8R      HAL2     0.900000E-01   1.00800           0
      7905 MEMB     116      SOPE     H8S      HAL2     0.900000E-01   1.00800           0
      7906 MEMB     116      SOPE     C29      CEL1    -0.150000       12.0110           0
      7907 MEMB     116      SOPE     H91      HEL1     0.150000       1.00800           0
      7908 MEMB     116      SOPE     C210     CEL1    -0.150000       12.0110           0
      7909 MEMB     116      SOPE     H101     HEL1     0.150000       1.00800           0
      7910 MEMB     116      SOPE     C211     CTL2    -0.180000       12.0110           0
      7911 MEMB     116      SOPE     H11R     HAL2     0.900000E-01   1.00800           0
      7912 MEMB     116      SOPE     H11S     HAL2     0.900000E-01   1.00800           0
      7913 MEMB     116      SOPE     C212     CTL2    -0.180000       12.0110           0
      7914 MEMB     116      SOPE     H12R     HAL2     0.900000E-01   1.00800           0
      7915 MEMB     116      SOPE     H12S     HAL2     0.900000E-01   1.00800           0
      7916 MEMB     116      SOPE     C213     CTL2    -0.180000       12.0110           0
      7917 MEMB     116      SOPE     H13R     HAL2     0.900000E-01   1.00800           0
      7918 MEMB     116      SOPE     H13S     HAL2     0.900000E-01   1.00800           0
      7919 MEMB     116      SOPE     C214     CTL2    -0.180000       12.0110           0
      7920 MEMB     116      SOPE     H14R     HAL2     0.900000E-01   1.00800           0
      7921 MEMB     116      SOPE     H14S     HAL2     0.900000E-01   1.00800           0
      7922 MEMB     116      SOPE     C215     CTL2    -0.180000       12.0110           0
      7923 MEMB     116      SOPE     H15R     HAL2     0.900000E-01   1.00800           0
      7924 MEMB     116      SOPE     H15S     HAL2     0.900000E-01   1.00800           0
      7925 MEMB     116      SOPE     C216     CTL2    -0.180000       12.0110           0
      7926 MEMB     116      SOPE     H16R     HAL2     0.900000E-01   1.00800           0
      7927 MEMB     116      SOPE     H16S     HAL2     0.900000E-01   1.00800           0
      7928 MEMB     116      SOPE     C217     CTL2    -0.180000       12.0110           0
      7929 MEMB     116      SOPE     H17R     HAL2     0.900000E-01   1.00800           0
      7930 MEMB     116      SOPE     H17S     HAL2     0.900000E-01   1.00800           0
      7931 MEMB     116      SOPE     C218     CTL3    -0.270000       12.0110           0
      7932 MEMB     116      SOPE     H18R     HAL3     0.900000E-01   1.00800           0
      7933 MEMB     116      SOPE     H18S     HAL3     0.900000E-01   1.00800           0
      7934 MEMB     116      SOPE     H18T     HAL3     0.900000E-01   1.00800           0
      7935 MEMB     116      SOPE     C33      CTL2    -0.180000       12.0110           0
      7936 MEMB     116      SOPE     H3X      HAL2     0.900000E-01   1.00800           0
      7937 MEMB     116      SOPE     H3Y      HAL2     0.900000E-01   1.00800           0
      7938 MEMB     116      SOPE     C34      CTL2    -0.180000       12.0110           0
      7939 MEMB     116      SOPE     H4X      HAL2     0.900000E-01   1.00800           0
      7940 MEMB     116      SOPE     H4Y      HAL2     0.900000E-01   1.00800           0
      7941 MEMB     116      SOPE     C35      CTL2    -0.180000       12.0110           0
      7942 MEMB     116      SOPE     H5X      HAL2     0.900000E-01   1.00800           0
      7943 MEMB     116      SOPE     H5Y      HAL2     0.900000E-01   1.00800           0
      7944 MEMB     116      SOPE     C36      CTL2    -0.180000       12.0110           0
      7945 MEMB     116      SOPE     H6X      HAL2     0.900000E-01   1.00800           0
      7946 MEMB     116      SOPE     H6Y      HAL2     0.900000E-01   1.00800           0
      7947 MEMB     116      SOPE     C37      CTL2    -0.180000       12.0110           0
      7948 MEMB     116      SOPE     H7X      HAL2     0.900000E-01   1.00800           0
      7949 MEMB     116      SOPE     H7Y      HAL2     0.900000E-01   1.00800           0
      7950 MEMB     116      SOPE     C38      CTL2    -0.180000       12.0110           0
      7951 MEMB     116      SOPE     H8X      HAL2     0.900000E-01   1.00800           0
      7952 MEMB     116      SOPE     H8Y      HAL2     0.900000E-01   1.00800           0
      7953 MEMB     116      SOPE     C39      CTL2    -0.180000       12.0110           0
      7954 MEMB     116      SOPE     H9X      HAL2     0.900000E-01   1.00800           0
      7955 MEMB     116      SOPE     H9Y      HAL2     0.900000E-01   1.00800           0
      7956 MEMB     116      SOPE     C310     CTL2    -0.180000       12.0110           0
      7957 MEMB     116      SOPE     H10X     HAL2     0.900000E-01   1.00800           0
      7958 MEMB     116      SOPE     H10Y     HAL2     0.900000E-01   1.00800           0
      7959 MEMB     116      SOPE     C311     CTL2    -0.180000       12.0110           0
      7960 MEMB     116      SOPE     H11X     HAL2     0.900000E-01   1.00800           0
      7961 MEMB     116      SOPE     H11Y     HAL2     0.900000E-01   1.00800           0
      7962 MEMB     116      SOPE     C312     CTL2    -0.180000       12.0110           0
      7963 MEMB     116      SOPE     H12X     HAL2     0.900000E-01   1.00800           0
      7964 MEMB     116      SOPE     H12Y     HAL2     0.900000E-01   1.00800           0
      7965 MEMB     116      SOPE     C313     CTL2    -0.180000       12.0110           0
      7966 MEMB     116      SOPE     H13X     HAL2     0.900000E-01   1.00800           0
      7967 MEMB     116      SOPE     H13Y     HAL2     0.900000E-01   1.00800           0
      7968 MEMB     116      SOPE     C314     CTL2    -0.180000       12.0110           0
      7969 MEMB     116      SOPE     H14X     HAL2     0.900000E-01   1.00800           0
      7970 MEMB     116      SOPE     H14Y     HAL2     0.900000E-01   1.00800           0
      7971 MEMB     116      SOPE     C315     CTL2    -0.180000       12.0110           0
      7972 MEMB     116      SOPE     H15X     HAL2     0.900000E-01   1.00800           0
      7973 MEMB     116      SOPE     H15Y     HAL2     0.900000E-01   1.00800           0
      7974 MEMB     116      SOPE     C316     CTL2    -0.180000       12.0110           0
      7975 MEMB     116      SOPE     H16X     HAL2     0.900000E-01   1.00800           0
      7976 MEMB     116      SOPE     H16Y     HAL2     0.900000E-01   1.00800           0
      7977 MEMB     116      SOPE     C317     CTL2    -0.180000       12.0110           0
      7978 MEMB     116      SOPE     H17X     HAL2     0.900000E-01   1.00800           0
      7979 MEMB     116      SOPE     H17Y     HAL2     0.900000E-01   1.00800           0
      7980 MEMB     116      SOPE     C318     CTL3    -0.270000       12.0110           0
      7981 MEMB     116      SOPE     H18X     HAL3     0.900000E-01   1.00800           0
      7982 MEMB     116      SOPE     H18Y     HAL3     0.900000E-01   1.00800           0
      7983 MEMB     116      SOPE     H18Z     HAL3     0.900000E-01   1.00800           0
      7984 MEMB     150      SOPE     N        NH3L    -0.300000       14.0070           0
      7985 MEMB     150      SOPE     HN1      HCL      0.330000       1.00800           0
      7986 MEMB     150      SOPE     HN2      HCL      0.330000       1.00800           0
      7987 MEMB     150      SOPE     HN3      HCL      0.330000       1.00800           0
      7988 MEMB     150      SOPE     C12      CTL2     0.130000       12.0110           0
      7989 MEMB     150      SOPE     H12A     HAL2     0.900000E-01   1.00800           0
      7990 MEMB     150      SOPE     H12B     HAL2     0.900000E-01   1.00800           0
      7991 MEMB     150      SOPE     C11      CTL2    -0.800000E-01   12.0110           0
      7992 MEMB     150      SOPE     H11A     HAL2     0.900000E-01   1.00800           0
      7993 MEMB     150      SOPE     H11B     HAL2     0.900000E-01   1.00800           0
      7994 MEMB     150      SOPE     P        PL       1.500000       30.9740           0
      7995 MEMB     150      SOPE     O13      O2L     -0.780000       15.9994           0
      7996 MEMB     150      SOPE     O14      O2L     -0.780000       15.9994           0
      7997 MEMB     150      SOPE     O12      OSLP    -0.570000       15.9994           0
      7998 MEMB     150      SOPE     O11      OSLP    -0.570000       15.9994           0
      7999 MEMB     150      SOPE     C1       CTL2    -0.800000E-01   12.0110           0
      8000 MEMB     150      SOPE     HA       HAL2     0.900000E-01   1.00800           0
      8001 MEMB     150      SOPE     HB       HAL2     0.900000E-01   1.00800           0
      8002 MEMB     150      SOPE     C2       CTL1     0.170000       12.0110           0
      8003 MEMB     150      SOPE     HS       HAL1     0.900000E-01   1.00800           0
      8004 MEMB     150      SOPE     O21      OSL     -0.490000       15.9994           0
      8005 MEMB     150      SOPE     C21      CL       0.900000       12.0110           0
      8006 MEMB     150      SOPE     O22      OBL     -0.630000       15.9994           0
      8007 MEMB     150      SOPE     C22      CTL2    -0.220000       12.0110           0
      8008 MEMB     150      SOPE     H2R      HAL2     0.900000E-01   1.00800           0
      8009 MEMB     150      SOPE     H2S      HAL2     0.900000E-01   1.00800           0
      8010 MEMB     150      SOPE     C3       CTL2     0.800000E-01   12.0110           0
      8011 MEMB     150      SOPE     HX       HAL2     0.900000E-01   1.00800           0
      8012 MEMB     150      SOPE     HY       HAL2     0.900000E-01   1.00800           0
      8013 MEMB     150      SOPE     O31      OSL     -0.490000       15.9994           0
      8014 MEMB     150      SOPE     C31      CL       0.900000       12.0110           0
      8015 MEMB     150      SOPE     O32      OBL     -0.630000       15.9994           0
      8016 MEMB     150      SOPE     C32      CTL2    -0.220000       12.0110           0
      8017 MEMB     150      SOPE     H2X      HAL2     0.900000E-01   1.00800           0
      8018 MEMB     150      SOPE     H2Y      HAL2     0.900000E-01   1.00800           0
      8019 MEMB     150      SOPE     C23      CTL2    -0.180000       12.0110           0
      8020 MEMB     150      SOPE     H3R      HAL2     0.900000E-01   1.00800           0
      8021 MEMB     150      SOPE     H3S      HAL2     0.900000E-01   1.00800           0
      8022 MEMB     150      SOPE     C24      CTL2    -0.180000       12.0110           0
      8023 MEMB     150      SOPE     H4R      HAL2     0.900000E-01   1.00800           0
      8024 MEMB     150      SOPE     H4S      HAL2     0.900000E-01   1.00800           0
      8025 MEMB     150      SOPE     C25      CTL2    -0.180000       12.0110           0
      8026 MEMB     150      SOPE     H5R      HAL2     0.900000E-01   1.00800           0
      8027 MEMB     150      SOPE     H5S      HAL2     0.900000E-01   1.00800           0
      8028 MEMB     150      SOPE     C26      CTL2    -0.180000       12.0110           0
      8029 MEMB     150      SOPE     H6R      HAL2     0.900000E-01   1.00800           0
      8030 MEMB     150      SOPE     H6S      HAL2     0.900000E-01   1.00800           0
      8031 MEMB     150      SOPE     C27      CTL2    -0.180000       12.0110           0
      8032 MEMB     150      SOPE     H7R      HAL2     0.900000E-01   1.00800           0
      8033 MEMB     150      SOPE     H7S      HAL2     0.900000E-01   1.00800           0
      8034 MEMB     150      SOPE     C28      CTL2    -0.180000       12.0110           0
      8035 MEMB     150      SOPE     H8R      HAL2     0.900000E-01   1.00800           0
      8036 MEMB     150      SOPE     H8S      HAL2     0.900000E-01   1.00800           0
      8037 MEMB     150      SOPE     C29      CEL1    -0.150000       12.0110           0
      8038 MEMB     150      SOPE     H91      HEL1     0.150000       1.00800           0
      8039 MEMB     150      SOPE     C210     CEL1    -0.150000       12.0110           0
      8040 MEMB     150      SOPE     H101     HEL1     0.150000       1.00800           0
      8041 MEMB     150      SOPE     C211     CTL2    -0.180000       12.0110           0
      8042 MEMB     150      SOPE     H11R     HAL2     0.900000E-01   1.00800           0
      8043 MEMB     150      SOPE     H11S     HAL2     0.900000E-01   1.00800           0
      8044 MEMB     150      SOPE     C212     CTL2    -0.180000       12.0110           0
      8045 MEMB     150      SOPE     H12R     HAL2     0.900000E-01   1.00800           0
      8046 MEMB     150      SOPE     H12S     HAL2     0.900000E-01   1.00800           0
      8047 MEMB     150      SOPE     C213     CTL2    -0.180000       12.0110           0
      8048 MEMB     150      SOPE     H13R     HAL2     0.900000E-01   1.00800           0
      8049 MEMB     150      SOPE     H13S     HAL2     0.900000E-01   1.00800           0
      8050 MEMB     150      SOPE     C214     CTL2    -0.180000       12.0110           0
      8051 MEMB     150      SOPE     H14R     HAL2     0.900000E-01   1.00800           0
      8052 MEMB     150      SOPE     H14S     HAL2     0.900000E-01   1.00800           0
      8053 MEMB     150      SOPE     C215     CTL2    -0.180000       12.0110           0
      8054 MEMB     150      SOPE     H15R     HAL2     0.900000E-01   1.00800           0
      8055 MEMB     150      SOPE     H15S     HAL2     0.900000E-01   1.00800           0
      8056 MEMB     150      SOPE     C216     CTL2    -0.180000       12.0110           0
      8057 MEMB     150      SOPE     H16R     HAL2     0.900000E-01   1.00800           0
      8058 MEMB     150      SOPE     H16S     HAL2     0.900000E-01   1.00800           0
      8059 MEMB     150      SOPE     C217     CTL2    -0.180000       12.0110           0
      8060 MEMB     150      SOPE     H17R     HAL2     0.900000E-01   1.00800           0
      8061 MEMB     150      SOPE     H17S     HAL2     0.900000E-01   1.00800           0
      8062 MEMB     150      SOPE     C218     CTL3    -0.270000       12.0110           0
      8063 MEMB     150      SOPE     H18R     HAL3     0.900000E-01   1.00800           0
      8064 MEMB     150      SOPE     H18S     HAL3     0.900000E-01   1.00800           0
      8065 MEMB     150      SOPE     H18T     HAL3     0.900000E-01   1.00800           0
      8066 MEMB     150      SOPE     C33      CTL2    -0.180000       12.0110           0
      8067 MEMB     150      SOPE     H3X      HAL2     0.900000E-01   1.00800           0
      8068 MEMB     150      SOPE     H3Y      HAL2     0.900000E-01   1.00800           0
      8069 MEMB     150      SOPE     C34      CTL2    -0.180000       12.0110           0
      8070 MEMB     150      SOPE     H4X      HAL2     0.900000E-01   1.00800           0
      8071 MEMB     150      SOPE     H4Y      HAL2     0.900000E-01   1.00800           0
      8072 MEMB     150      SOPE     C35      CTL2    -0.180000       12.0110           0
      8073 MEMB     150      SOPE     H5X      HAL2     0.900000E-01   1.00800           0
      8074 MEMB     150      SOPE     H5Y      HAL2     0.900000E-01   1.00800           0
      8075 MEMB     150      SOPE     C36      CTL2    -0.180000       12.0110           0
      8076 MEMB     150      SOPE     H6X      HAL2     0.900000E-01   1.00800           0
      8077 MEMB     150      SOPE     H6Y      HAL2     0.900000E-01   1.00800           0
      8078 MEMB     150      SOPE     C37      CTL2    -0.180000       12.0110           0
      8079 MEMB     150      SOPE     H7X      HAL2     0.900000E-01   1.00800           0
      8080 MEMB     150      SOPE     H7Y      HAL2     0.900000E-01   1.00800           0
      8081 MEMB     150      SOPE     C38      CTL2    -0.180000       12.0110           0
      8082 MEMB     150      SOPE     H8X      HAL2     0.900000E-01   1.00800           0
      8083 MEMB     150      SOPE     H8Y      HAL2     0.900000E-01   1.00800           0
      8084 MEMB     150      SOPE     C39      CTL2    -0.180000       12.0110           0
      8085 MEMB     150      SOPE     H9X      HAL2     0.900000E-01   1.00800           0
      8086 MEMB     150      SOPE     H9Y      HAL2     0.900000E-01   1.00800           0
      8087 MEMB     150      SOPE     C310     CTL2    -0.180000       12.0110           0
      8088 MEMB     150      SOPE     H10X     HAL2     0.900000E-01   1.00800           0
      8089 MEMB     150      SOPE     H10Y     HAL2     0.900000E-01   1.00800           0
      8090 MEMB     150      SOPE     C311     CTL2    -0.180000       12.0110           0
      8091 MEMB     150      SOPE     H11X     HAL2     0.900000E-01   1.00800           0
      8092 MEMB     150      SOPE     H11Y     HAL2     0.900000E-01   1.00800           0
      8093 MEMB     150      SOPE     C312     CTL2    -0.180000       12.0110           0
      8094 MEMB     150      SOPE     H12X     HAL2     0.900000E-01   1.00800           0
      8095 MEMB     150      SOPE     H12Y     HAL2     0.900000E-01   1.00800           0
      8096 MEMB     150      SOPE     C313     CTL2    -0.180000       12.0110           0
      8097 MEMB     150      SOPE     H13X     HAL2     0.900000E-01   1.00800           0
      8098 MEMB     150      SOPE     H13Y     HAL2     0.900000E-01   1.00800           0
      8099 MEMB     150      SOPE     C314     CTL2    -0.180000       12.0110           0
      8100 MEMB     150      SOPE     H14X     HAL2     0.900000E-01   1.00800           0
      8101 MEMB     150      SOPE     H14Y     HAL2     0.900000E-01   1.00800           0
      8102 MEMB     150      SOPE     C315     CTL2    -0.180000       12.0110           0
      8103 MEMB     150      SOPE     H15X     HAL2     0.900000E-01   1.00800           0
      8104 MEMB     150      SOPE     H15Y     HAL2     0.900000E-01   1.00800           0
      8105 MEMB     150      SOPE     C316     CTL2    -0.180000       12.0110           0
      8106 MEMB     150      SOPE     H16X     HAL2     0.900000E-01   1.00800           0
      8107 MEMB     150      SOPE     H16Y     HAL2     0.900000E-01   1.00800           0
      8108 MEMB     150      SOPE     C317     CTL2    -0.180000       12.0110           0
      8109 MEMB     150      SOPE     H17X     HAL2     0.900000E-01   1.00800           0
      8110 MEMB     150      SOPE     H17Y     HAL2     0.900000E-01   1.00800           0
      8111 MEMB     150      SOPE     C318     CTL3    -0.270000       12.0110           0
      8112 MEMB     150      SOPE     H18X     HAL3     0.900000E-01   1.00800           0
      8113 MEMB     150      SOPE     H18Y     HAL3     0.900000E-01   1.00800           0
      8114 MEMB     150      SOPE     H18Z     HAL3     0.900000E-01   1.00800           0
      8115 MEMB     181      SOPE     N        NH3L    -0.300000       14.0070           0
      8116 MEMB     181      SOPE     HN1      HCL      0.330000       1.00800           0
      8117 MEMB     181      SOPE     HN2      HCL      0.330000       1.00800           0
      8118 MEMB     181      SOPE     HN3      HCL      0.330000       1.00800           0
      8119 MEMB     181      SOPE     C12      CTL2     0.130000       12.0110           0
      8120 MEMB     181      SOPE     H12A     HAL2     0.900000E-01   1.00800           0
      8121 MEMB     181      SOPE     H12B     HAL2     0.900000E-01   1.00800           0
      8122 MEMB     181      SOPE     C11      CTL2    -0.800000E-01   12.0110           0
      8123 MEMB     181      SOPE     H11A     HAL2     0.900000E-01   1.00800           0
      8124 MEMB     181      SOPE     H11B     HAL2     0.900000E-01   1.00800           0
      8125 MEMB     181      SOPE     P        PL       1.500000       30.9740           0
      8126 MEMB     181      SOPE     O13      O2L     -0.780000       15.9994           0
      8127 MEMB     181      SOPE     O14      O2L     -0.780000       15.9994           0
      8128 MEMB     181      SOPE     O12      OSLP    -0.570000       15.9994           0
      8129 MEMB     181      SOPE     O11      OSLP    -0.570000       15.9994           0
      8130 MEMB     181      SOPE     C1       CTL2    -0.800000E-01   12.0110           0
      8131 MEMB     181      SOPE     HA       HAL2     0.900000E-01   1.00800           0
      8132 MEMB     181      SOPE     HB       HAL2     0.900000E-01   1.00800           0
      8133 MEMB     181      SOPE     C2       CTL1     0.170000       12.0110           0
      8134 MEMB     181      SOPE     HS       HAL1     0.900000E-01   1.00800           0
      8135 MEMB     181      SOPE     O21      OSL     -0.490000       15.9994           0
      8136 MEMB     181      SOPE     C21      CL       0.900000       12.0110           0
      8137 MEMB     181      SOPE     O22      OBL     -0.630000       15.9994           0
      8138 MEMB     181      SOPE     C22      CTL2    -0.220000       12.0110           0
      8139 MEMB     181      SOPE     H2R      HAL2     0.900000E-01   1.00800           0
      8140 MEMB     181      SOPE     H2S      HAL2     0.900000E-01   1.00800           0
      8141 MEMB     181      SOPE     C3       CTL2     0.800000E-01   12.0110           0
      8142 MEMB     181      SOPE     HX       HAL2     0.900000E-01   1.00800           0
      8143 MEMB     181      SOPE     HY       HAL2     0.900000E-01   1.00800           0
      8144 MEMB     181      SOPE     O31      OSL     -0.490000       15.9994           0
      8145 MEMB     181      SOPE     C31      CL       0.900000       12.0110           0
      8146 MEMB     181      SOPE     O32      OBL     -0.630000       15.9994           0
      8147 MEMB     181      SOPE     C32      CTL2    -0.220000       12.0110           0
      8148 MEMB     181      SOPE     H2X      HAL2     0.900000E-01   1.00800           0
      8149 MEMB     181      SOPE     H2Y      HAL2     0.900000E-01   1.00800           0
      8150 MEMB     181      SOPE     C23      CTL2    -0.180000       12.0110           0
      8151 MEMB     181      SOPE     H3R      HAL2     0.900000E-01   1.00800           0
      8152 MEMB     181      SOPE     H3S      HAL2     0.900000E-01   1.00800           0
      8153 MEMB     181      SOPE     C24      CTL2    -0.180000       12.0110           0
      8154 MEMB     181      SOPE     H4R      HAL2     0.900000E-01   1.00800           0
      8155 MEMB     181      SOPE     H4S      HAL2     0.900000E-01   1.00800           0
      8156 MEMB     181      SOPE     C25      CTL2    -0.180000       12.0110           0
      8157 MEMB     181      SOPE     H5R      HAL2     0.900000E-01   1.00800           0
      8158 MEMB     181      SOPE     H5S      HAL2     0.900000E-01   1.00800           0
      8159 MEMB     181      SOPE     C26      CTL2    -0.180000       12.0110           0
      8160 MEMB     181      SOPE     H6R      HAL2     0.900000E-01   1.00800           0
      8161 MEMB     181      SOPE     H6S      HAL2     0.900000E-01   1.00800           0
      8162 MEMB     181      SOPE     C27      CTL2    -0.180000       12.0110           0
      8163 MEMB     181      SOPE     H7R      HAL2     0.900000E-01   1.00800           0
      8164 MEMB     181      SOPE     H7S      HAL2     0.900000E-01   1.00800           0
      8165 MEMB     181      SOPE     C28      CTL2    -0.180000       12.0110           0
      8166 MEMB     181      SOPE     H8R      HAL2     0.900000E-01   1.00800           0
      8167 MEMB     181      SOPE     H8S      HAL2     0.900000E-01   1.00800           0
      8168 MEMB     181      SOPE     C29      CEL1    -0.150000       12.0110           0
      8169 MEMB     181      SOPE     H91      HEL1     0.150000       1.00800           0
      8170 MEMB     181      SOPE     C210     CEL1    -0.150000       12.0110           0
      8171 MEMB     181      SOPE     H101     HEL1     0.150000       1.00800           0
      8172 MEMB     181      SOPE     C211     CTL2    -0.180000       12.0110           0
      8173 MEMB     181      SOPE     H11R     HAL2     0.900000E-01   1.00800           0
      8174 MEMB     181      SOPE     H11S     HAL2     0.900000E-01   1.00800           0
      8175 MEMB     181      SOPE     C212     CTL2    -0.180000       12.0110           0
      8176 MEMB     181      SOPE     H12R     HAL2     0.900000E-01   1.00800           0
      8177 MEMB     181      SOPE     H12S     HAL2     0.900000E-01   1.00800           0
      8178 MEMB     181      SOPE     C213     CTL2    -0.180000       12.0110           0
      8179 MEMB     181      SOPE     H13R     HAL2     0.900000E-01   1.00800           0
      8180 MEMB     181      SOPE     H13S     HAL2     0.900000E-01   1.00800           0
      8181 MEMB     181      SOPE     C214     CTL2    -0.180000       12.0110           0
      8182 MEMB     181      SOPE     H14R     HAL2     0.900000E-01   1.00800           0
      8183 MEMB     181      SOPE     H14S     HAL2     0.900000E-01   1.00800           0
      8184 MEMB     181      SOPE     C215     CTL2    -0.180000       12.0110           0
      8185 MEMB     181      SOPE     H15R     HAL2     0.900000E-01   1.00800           0
      8186 MEMB     181      SOPE     H15S     HAL2     0.900000E-01   1.00800           0
      8187 MEMB     181      SOPE     C216     CTL2    -0.180000       12.0110           0
      8188 MEMB     181      SOPE     H16R     HAL2     0.900000E-01   1.00800           0
      8189 MEMB     181      SOPE     H16S     HAL2     0.900000E-01   1.00800           0
      8190 MEMB     181      SOPE     C217     CTL2    -0.180000       12.0110           0
      8191 MEMB     181      SOPE     H17R     HAL2     0.900000E-01   1.00800           0
      8192 MEMB     181      SOPE     H17S     HAL2     0.900000E-01   1.00800           0
      8193 MEMB     181      SOPE     C218     CTL3    -0.270000       12.0110           0
      8194 MEMB     181      SOPE     H18R     HAL3     0.900000E-01   1.00800           0
      8195 MEMB     181      SOPE     H18S     HAL3     0.900000E-01   1.00800           0
      8196 MEMB     181      SOPE     H18T     HAL3     0.900000E-01   1.00800           0
      8197 MEMB     181      SOPE     C33      CTL2    -0.180000       12.0110           0
      8198 MEMB     181      SOPE     H3X      HAL2     0.900000E-01   1.00800           0
      8199 MEMB     181      SOPE     H3Y      HAL2     0.900000E-01   1.00800           0
      8200 MEMB     181      SOPE     C34      CTL2    -0.180000       12.0110           0
      8201 MEMB     181      SOPE     H4X      HAL2     0.900000E-01   1.00800           0
      8202 MEMB     181      SOPE     H4Y      HAL2     0.900000E-01   1.00800           0
      8203 MEMB     181      SOPE     C35      CTL2    -0.180000       12.0110           0
      8204 MEMB     181      SOPE     H5X      HAL2     0.900000E-01   1.00800           0
      8205 MEMB     181      SOPE     H5Y      HAL2     0.900000E-01   1.00800           0
      8206 MEMB     181      SOPE     C36      CTL2    -0.180000       12.0110           0
      8207 MEMB     181      SOPE     H6X      HAL2     0.900000E-01   1.00800           0
      8208 MEMB     181      SOPE     H6Y      HAL2     0.900000E-01   1.00800           0
      8209 MEMB     181      SOPE     C37      CTL2    -0.180000       12.0110           0
      8210 MEMB     181      SOPE     H7X      HAL2     0.900000E-01   1.00800           0
      8211 MEMB     181      SOPE     H7Y      HAL2     0.900000E-01   1.00800           0
      8212 MEMB     181      SOPE     C38      CTL2    -0.180000       12.0110           0
      8213 MEMB     181      SOPE     H8X      HAL2     0.900000E-01   1.00800           0
      8214 MEMB     181      SOPE     H8Y      HAL2     0.900000E-01   1.00800           0
      8215 MEMB     181      SOPE     C39      CTL2    -0.180000       12.0110           0
      8216 MEMB     181      SOPE     H9X      HAL2     0.900000E-01   1.00800           0
      8217 MEMB     181      SOPE     H9Y      HAL2     0.900000E-01   1.00800           0
      8218 MEMB     181      SOPE     C310     CTL2    -0.180000       12.0110           0
      8219 MEMB     181      SOPE     H10X     HAL2     0.900000E-01   1.00800           0
      8220 MEMB     181      SOPE     H10Y     HAL2     0.900000E-01   1.00800           0
      8221 MEMB     181      SOPE     C311     CTL2    -0.180000       12.0110           0
      8222 MEMB     181      SOPE     H11X     HAL2     0.900000E-01   1.00800           0
      8223 MEMB     181      SOPE     H11Y     HAL2     0.900000E-01   1.00800           0
      8224 MEMB     181      SOPE     C312     CTL2    -0.180000       12.0110           0
      8225 MEMB     181      SOPE     H12X     HAL2     0.900000E-01   1.00800           0
      8226 MEMB     181      SOPE     H12Y     HAL2     0.900000E-01   1.00800           0
      8227 MEMB     181      SOPE     C313     CTL2    -0.180000       12.0110           0
      8228 MEMB     181      SOPE     H13X     HAL2     0.900000E-01   1.00800           0
      8229 MEMB     181      SOPE     H13Y     HAL2     0.900000E-01   1.00800           0
      8230 MEMB     181      SOPE     C314     CTL2    -0.180000       12.0110           0
      8231 MEMB     181      SOPE     H14X     HAL2     0.900000E-01   1.00800           0
      8232 MEMB     181      SOPE     H14Y     HAL2     0.900000E-01   1.00800           0
      8233 MEMB     181      SOPE     C315     CTL2    -0.180000       12.0110           0
      8234 MEMB     181      SOPE     H15X     HAL2     0.900000E-01   1.00800           0
      8235 MEMB     181      SOPE     H15Y     HAL2     0.900000E-01   1.00800           0
      8236 MEMB     181      SOPE     C316     CTL2    -0.180000       12.0110           0
      8237 MEMB     181      SOPE     H16X     HAL2     0.900000E-01   1.00800           0
      8238 MEMB     181      SOPE     H16Y     HAL2     0.900000E-01   1.00800           0
      8239 MEMB     181      SOPE     C317     CTL2    -0.180000       12.0110           0
      8240 MEMB     181      SOPE     H17X     HAL2     0.900000E-01   1.00800           0
      8241 MEMB     181      SOPE     H17Y     HAL2     0.900000E-01   1.00800           0
      8242 MEMB     181      SOPE     C318     CTL3    -0.270000       12.0110           0
      8243 MEMB     181      SOPE     H18X     HAL3     0.900000E-01   1.00800           0
      8244 MEMB     181      SOPE     H18Y     HAL3     0.900000E-01   1.00800           0
      8245 MEMB     181      SOPE     H18Z     HAL3     0.900000E-01   1.00800           0
      8246 MEMB     182      SOPE     N        NH3L    -0.300000       14.0070           0
      8247 MEMB     182      SOPE     HN1      HCL      0.330000       1.00800           0
      8248 MEMB     182      SOPE     HN2      HCL      0.330000       1.00800           0
      8249 MEMB     182      SOPE     HN3      HCL      0.330000       1.00800           0
      8250 MEMB     182      SOPE     C12      CTL2     0.130000       12.0110           0
      8251 MEMB     182      SOPE     H12A     HAL2     0.900000E-01   1.00800           0
      8252 MEMB     182      SOPE     H12B     HAL2     0.900000E-01   1.00800           0
      8253 MEMB     182      SOPE     C11      CTL2    -0.800000E-01   12.0110           0
      8254 MEMB     182      SOPE     H11A     HAL2     0.900000E-01   1.00800           0
      8255 MEMB     182      SOPE     H11B     HAL2     0.900000E-01   1.00800           0
      8256 MEMB     182      SOPE     P        PL       1.500000       30.9740           0
      8257 MEMB     182      SOPE     O13      O2L     -0.780000       15.9994           0
      8258 MEMB     182      SOPE     O14      O2L     -0.780000       15.9994           0
      8259 MEMB     182      SOPE     O12      OSLP    -0.570000       15.9994           0
      8260 MEMB     182      SOPE     O11      OSLP    -0.570000       15.9994           0
      8261 MEMB     182      SOPE     C1       CTL2    -0.800000E-01   12.0110           0
      8262 MEMB     182      SOPE     HA       HAL2     0.900000E-01   1.00800           0
      8263 MEMB     182      SOPE     HB       HAL2     0.900000E-01   1.00800           0
      8264 MEMB     182      SOPE     C2       CTL1     0.170000       12.0110           0
      8265 MEMB     182      SOPE     HS       HAL1     0.900000E-01   1.00800           0
      8266 MEMB     182      SOPE     O21      OSL     -0.490000       15.9994           0
      8267 MEMB     182      SOPE     C21      CL       0.900000       12.0110           0
      8268 MEMB     182      SOPE     O22      OBL     -0.630000       15.9994           0
      8269 MEMB     182      SOPE     C22      CTL2    -0.220000       12.0110           0
      8270 MEMB     182      SOPE     H2R      HAL2     0.900000E-01   1.00800           0
      8271 MEMB     182      SOPE     H2S      HAL2     0.900000E-01   1.00800           0
      8272 MEMB     182      SOPE     C3       CTL2     0.800000E-01   12.0110           0
      8273 MEMB     182      SOPE     HX       HAL2     0.900000E-01   1.00800           0
      8274 MEMB     182      SOPE     HY       HAL2     0.900000E-01   1.00800           0
      8275 MEMB     182      SOPE     O31      OSL     -0.490000       15.9994           0
      8276 MEMB     182      SOPE     C31      CL       0.900000       12.0110           0
      8277 MEMB     182      SOPE     O32      OBL     -0.630000       15.9994           0
      8278 MEMB     182      SOPE     C32      CTL2    -0.220000       12.0110           0
      8279 MEMB     182      SOPE     H2X      HAL2     0.900000E-01   1.00800           0
      8280 MEMB     182      SOPE     H2Y      HAL2     0.900000E-01   1.00800           0
      8281 MEMB     182      SOPE     C23      CTL2    -0.180000       12.0110           0
      8282 MEMB     182      SOPE     H3R      HAL2     0.900000E-01   1.00800           0
      8283 MEMB     182      SOPE     H3S      HAL2     0.900000E-01   1.00800           0
      8284 MEMB     182      SOPE     C24      CTL2    -0.180000       12.0110           0
      8285 MEMB     182      SOPE     H4R      HAL2     0.900000E-01   1.00800           0
      8286 MEMB     182      SOPE     H4S      HAL2     0.900000E-01   1.00800           0
      8287 MEMB     182      SOPE     C25      CTL2    -0.180000       12.0110           0
      8288 MEMB     182      SOPE     H5R      HAL2     0.900000E-01   1.00800           0
      8289 MEMB     182      SOPE     H5S      HAL2     0.900000E-01   1.00800           0
      8290 MEMB     182      SOPE     C26      CTL2    -0.180000       12.0110           0
      8291 MEMB     182      SOPE     H6R      HAL2     0.900000E-01   1.00800           0
      8292 MEMB     182      SOPE     H6S      HAL2     0.900000E-01   1.00800           0
      8293 MEMB     182      SOPE     C27      CTL2    -0.180000       12.0110           0
      8294 MEMB     182      SOPE     H7R      HAL2     0.900000E-01   1.00800           0
      8295 MEMB     182      SOPE     H7S      HAL2     0.900000E-01   1.00800           0
      8296 MEMB     182      SOPE     C28      CTL2    -0.180000       12.0110           0
      8297 MEMB     182      SOPE     H8R      HAL2     0.900000E-01   1.00800           0
      8298 MEMB     182      SOPE     H8S      HAL2     0.900000E-01   1.00800           0
      8299 MEMB     182      SOPE     C29      CEL1    -0.150000       12.0110           0
      8300 MEMB     182      SOPE     H91      HEL1     0.150000       1.00800           0
      8301 MEMB     182      SOPE     C210     CEL1    -0.150000       12.0110           0
      8302 MEMB     182      SOPE     H101     HEL1     0.150000       1.00800           0
      8303 MEMB     182      SOPE     C211     CTL2    -0.180000       12.0110           0
      8304 MEMB     182      SOPE     H11R     HAL2     0.900000E-01   1.00800           0
      8305 MEMB     182      SOPE     H11S     HAL2     0.900000E-01   1.00800           0
      8306 MEMB     182      SOPE     C212     CTL2    -0.180000       12.0110           0
      8307 MEMB     182      SOPE     H12R     HAL2     0.900000E-01   1.00800           0
      8308 MEMB     182      SOPE     H12S     HAL2     0.900000E-01   1.00800           0
      8309 MEMB     182      SOPE     C213     CTL2    -0.180000       12.0110           0
      8310 MEMB     182      SOPE     H13R     HAL2     0.900000E-01   1.00800           0
      8311 MEMB     182      SOPE     H13S     HAL2     0.900000E-01   1.00800           0
      8312 MEMB     182      SOPE     C214     CTL2    -0.180000       12.0110           0
      8313 MEMB     182      SOPE     H14R     HAL2     0.900000E-01   1.00800           0
      8314 MEMB     182      SOPE     H14S     HAL2     0.900000E-01   1.00800           0
      8315 MEMB     182      SOPE     C215     CTL2    -0.180000       12.0110           0
      8316 MEMB     182      SOPE     H15R     HAL2     0.900000E-01   1.00800           0
      8317 MEMB     182      SOPE     H15S     HAL2     0.900000E-01   1.00800           0
      8318 MEMB     182      SOPE     C216     CTL2    -0.180000       12.0110           0
      8319 MEMB     182      SOPE     H16R     HAL2     0.900000E-01   1.00800           0
      8320 MEMB     182      SOPE     H16S     HAL2     0.900000E-01   1.00800           0
      8321 MEMB     182      SOPE     C217     CTL2    -0.180000       12.0110           0
      8322 MEMB     182      SOPE     H17R     HAL2     0.900000E-01   1.00800           0
      8323 MEMB     182      SOPE     H17S     HAL2     0.900000E-01   1.00800           0
      8324 MEMB     182      SOPE     C218     CTL3    -0.270000       12.0110           0
      8325 MEMB     182      SOPE     H18R     HAL3     0.900000E-01   1.00800           0
      8326 MEMB     182      SOPE     H18S     HAL3     0.900000E-01   1.00800           0
      8327 MEMB     182      SOPE     H18T     HAL3     0.900000E-01   1.00800           0
      8328 MEMB     182      SOPE     C33      CTL2    -0.180000       12.0110           0
      8329 MEMB     182      SOPE     H3X      HAL2     0.900000E-01   1.00800           0
      8330 MEMB     182      SOPE     H3Y      HAL2     0.900000E-01   1.00800           0
      8331 MEMB     182      SOPE     C34      CTL2    -0.180000       12.0110           0
      8332 MEMB     182      SOPE     H4X      HAL2     0.900000E-01   1.00800           0
      8333 MEMB     182      SOPE     H4Y      HAL2     0.900000E-01   1.00800           0
      8334 MEMB     182      SOPE     C35      CTL2    -0.180000       12.0110           0
      8335 MEMB     182      SOPE     H5X      HAL2     0.900000E-01   1.00800           0
      8336 MEMB     182      SOPE     H5Y      HAL2     0.900000E-01   1.00800           0
      8337 MEMB     182      SOPE     C36      CTL2    -0.180000       12.0110           0
      8338 MEMB     182      SOPE     H6X      HAL2     0.900000E-01   1.00800           0
      8339 MEMB     182      SOPE     H6Y      HAL2     0.900000E-01   1.00800           0
      8340 MEMB     182      SOPE     C37      CTL2    -0.180000       12.0110           0
      8341 MEMB     182      SOPE     H7X      HAL2     0.900000E-01   1.00800           0
      8342 MEMB     182      SOPE     H7Y      HAL2     0.900000E-01   1.00800           0
      8343 MEMB     182      SOPE     C38      CTL2    -0.180000       12.0110           0
      8344 MEMB     182      SOPE     H8X      HAL2     0.900000E-01   1.00800           0
      8345 MEMB     182      SOPE     H8Y      HAL2     0.900000E-01   1.00800           0
      8346 MEMB     182      SOPE     C39      CTL2    -0.180000       12.0110           0
      8347 MEMB     182      SOPE     H9X      HAL2     0.900000E-01   1.00800           0
      8348 MEMB     182      SOPE     H9Y      HAL2     0.900000E-01   1.00800           0
      8349 MEMB     182      SOPE     C310     CTL2    -0.180000       12.0110           0
      8350 MEMB     182      SOPE     H10X     HAL2     0.900000E-01   1.00800           0
      8351 MEMB     182      SOPE     H10Y     HAL2     0.900000E-01   1.00800           0
      8352 MEMB     182      SOPE     C311     CTL2    -0.180000       12.0110           0
      8353 MEMB     182      SOPE     H11X     HAL2     0.900000E-01   1.00800           0
      8354 MEMB     182      SOPE     H11Y     HAL2     0.900000E-01   1.00800           0
      8355 MEMB     182      SOPE     C312     CTL2    -0.180000       12.0110           0
      8356 MEMB     182      SOPE     H12X     HAL2     0.900000E-01   1.00800           0
      8357 MEMB     182      SOPE     H12Y     HAL2     0.900000E-01   1.00800           0
      8358 MEMB     182      SOPE     C313     CTL2    -0.180000       12.0110           0
      8359 MEMB     182      SOPE     H13X     HAL2     0.900000E-01   1.00800           0
      8360 MEMB     182      SOPE     H13Y     HAL2     0.900000E-01   1.00800           0
      8361 MEMB     182      SOPE     C314     CTL2    -0.180000       12.0110           0
      8362 MEMB     182      SOPE     H14X     HAL2     0.900000E-01   1.00800           0
      8363 MEMB     182      SOPE     H14Y     HAL2     0.900000E-01   1.00800           0
      8364 MEMB     182      SOPE     C315     CTL2    -0.180000       12.0110           0
      8365 MEMB     182      SOPE     H15X     HAL2     0.900000E-01   1.00800           0
      8366 MEMB     182      SOPE     H15Y     HAL2     0.900000E-01   1.00800           0
      8367 MEMB     182      SOPE     C316     CTL2    -0.180000       12.0110           0
      8368 MEMB     182      SOPE     H16X     HAL2     0.900000E-01   1.00800           0
      8369 MEMB     182      SOPE     H16Y     HAL2     0.900000E-01   1.00800           0
      8370 MEMB     182      SOPE     C317     CTL2    -0.180000       12.0110           0
      8371 MEMB     182      SOPE     H17X     HAL2     0.900000E-01   1.00800           0
      8372 MEMB     182      SOPE     H17Y     HAL2     0.900000E-01   1.00800           0
      8373 MEMB     182      SOPE     C318     CTL3    -0.270000       12.0110           0
      8374 MEMB     182      SOPE     H18X     HAL3     0.900000E-01   1.00800           0
      8375 MEMB     182      SOPE     H18Y     HAL3     0.900000E-01   1.00800           0
      8376 MEMB     182      SOPE     H18Z     HAL3     0.900000E-01   1.00800           0
      8377 MEMB     5        SAPC     N        NTL     -0.600000       14.0070           0
      8378 MEMB     5        SAPC     C12      CTL2    -0.100000       12.0110           0
      8379 MEMB     5        SAPC     H12A     HL       0.250000       1.00800           0
      8380 MEMB     5        SAPC     H12B     HL       0.250000       1.00800           0
      8381 MEMB     5        SAPC     C13      CTL5    -0.350000       12.0110           0
      8382 MEMB     5        SAPC     H13A     HL       0.250000       1.00800           0
      8383 MEMB     5        SAPC     H13B     HL       0.250000       1.00800           0
      8384 MEMB     5        SAPC     H13C     HL       0.250000       1.00800           0
      8385 MEMB     5        SAPC     C14      CTL5    -0.350000       12.0110           0
      8386 MEMB     5        SAPC     H14A     HL       0.250000       1.00800           0
      8387 MEMB     5        SAPC     H14B     HL       0.250000       1.00800           0
      8388 MEMB     5        SAPC     H14C     HL       0.250000       1.00800           0
      8389 MEMB     5        SAPC     C15      CTL5    -0.350000       12.0110           0
      8390 MEMB     5        SAPC     H15A     HL       0.250000       1.00800           0
      8391 MEMB     5        SAPC     H15B     HL       0.250000       1.00800           0
      8392 MEMB     5        SAPC     H15C     HL       0.250000       1.00800           0
      8393 MEMB     5        SAPC     C11      CTL2    -0.800000E-01   12.0110           0
      8394 MEMB     5        SAPC     H11A     HAL2     0.900000E-01   1.00800           0
      8395 MEMB     5        SAPC     H11B     HAL2     0.900000E-01   1.00800           0
      8396 MEMB     5        SAPC     P        PL       1.500000       30.9740           0
      8397 MEMB     5        SAPC     O13      O2L     -0.780000       15.9994           0
      8398 MEMB     5        SAPC     O14      O2L     -0.780000       15.9994           0
      8399 MEMB     5        SAPC     O12      OSLP    -0.570000       15.9994           0
      8400 MEMB     5        SAPC     O11      OSLP    -0.570000       15.9994           0
      8401 MEMB     5        SAPC     C1       CTL2    -0.800000E-01   12.0110           0
      8402 MEMB     5        SAPC     HA       HAL2     0.900000E-01   1.00800           0
      8403 MEMB     5        SAPC     HB       HAL2     0.900000E-01   1.00800           0
      8404 MEMB     5        SAPC     C2       CTL1     0.170000       12.0110           0
      8405 MEMB     5        SAPC     HS       HAL1     0.900000E-01   1.00800           0
      8406 MEMB     5        SAPC     O21      OSL     -0.490000       15.9994           0
      8407 MEMB     5        SAPC     C21      CL       0.900000       12.0110           0
      8408 MEMB     5        SAPC     O22      OBL     -0.630000       15.9994           0
      8409 MEMB     5        SAPC     C22      CTL2    -0.220000       12.0110           0
      8410 MEMB     5        SAPC     H2R      HAL2     0.900000E-01   1.00800           0
      8411 MEMB     5        SAPC     H2S      HAL2     0.900000E-01   1.00800           0
      8412 MEMB     5        SAPC     C3       CTL2     0.800000E-01   12.0110           0
      8413 MEMB     5        SAPC     HX       HAL2     0.900000E-01   1.00800           0
      8414 MEMB     5        SAPC     HY       HAL2     0.900000E-01   1.00800           0
      8415 MEMB     5        SAPC     O31      OSL     -0.490000       15.9994           0
      8416 MEMB     5        SAPC     C31      CL       0.900000       12.0110           0
      8417 MEMB     5        SAPC     O32      OBL     -0.630000       15.9994           0
      8418 MEMB     5        SAPC     C32      CTL2    -0.220000       12.0110           0
      8419 MEMB     5        SAPC     H2X      HAL2     0.900000E-01   1.00800           0
      8420 MEMB     5        SAPC     H2Y      HAL2     0.900000E-01   1.00800           0
      8421 MEMB     5        SAPC     C23      CTL2    -0.180000       12.0110           0
      8422 MEMB     5        SAPC     H3R      HAL2     0.900000E-01   1.00800           0
      8423 MEMB     5        SAPC     H3S      HAL2     0.900000E-01   1.00800           0
      8424 MEMB     5        SAPC     C24      CTL2    -0.180000       12.0110           0
      8425 MEMB     5        SAPC     H4R      HAL2     0.900000E-01   1.00800           0
      8426 MEMB     5        SAPC     H4S      HAL2     0.900000E-01   1.00800           0
      8427 MEMB     5        SAPC     C25      CEL1    -0.150000       12.0110           0
      8428 MEMB     5        SAPC     H5R      HEL1     0.150000       1.00800           0
      8429 MEMB     5        SAPC     C26      CEL1    -0.150000       12.0110           0
      8430 MEMB     5        SAPC     H6R      HEL1     0.150000       1.00800           0
      8431 MEMB     5        SAPC     C27      CTL2    -0.180000       12.0110           0
      8432 MEMB     5        SAPC     H7R      HAL2     0.900000E-01   1.00800           0
      8433 MEMB     5        SAPC     H7S      HAL2     0.900000E-01   1.00800           0
      8434 MEMB     5        SAPC     C28      CEL1    -0.150000       12.0110           0
      8435 MEMB     5        SAPC     H8R      HEL1     0.150000       1.00800           0
      8436 MEMB     5        SAPC     C29      CEL1    -0.150000       12.0110           0
      8437 MEMB     5        SAPC     H9R      HEL1     0.150000       1.00800           0
      8438 MEMB     5        SAPC     C210     CTL2    -0.180000       12.0110           0
      8439 MEMB     5        SAPC     H10R     HAL2     0.900000E-01   1.00800           0
      8440 MEMB     5        SAPC     H10S     HAL2     0.900000E-01   1.00800           0
      8441 MEMB     5        SAPC     C211     CEL1    -0.150000       12.0110           0
      8442 MEMB     5        SAPC     H11R     HEL1     0.150000       1.00800           0
      8443 MEMB     5        SAPC     C212     CEL1    -0.150000       12.0110           0
      8444 MEMB     5        SAPC     H12R     HEL1     0.150000       1.00800           0
      8445 MEMB     5        SAPC     C213     CTL2    -0.180000       12.0110           0
      8446 MEMB     5        SAPC     H13R     HAL2     0.900000E-01   1.00800           0
      8447 MEMB     5        SAPC     H13S     HAL2     0.900000E-01   1.00800           0
      8448 MEMB     5        SAPC     C214     CEL1    -0.150000       12.0110           0
      8449 MEMB     5        SAPC     H14R     HEL1     0.150000       1.00800           0
      8450 MEMB     5        SAPC     C215     CEL1    -0.150000       12.0110           0
      8451 MEMB     5        SAPC     H15R     HEL1     0.150000       1.00800           0
      8452 MEMB     5        SAPC     C216     CTL2    -0.180000       12.0110           0
      8453 MEMB     5        SAPC     H16R     HAL2     0.900000E-01   1.00800           0
      8454 MEMB     5        SAPC     H16S     HAL2     0.900000E-01   1.00800           0
      8455 MEMB     5        SAPC     C217     CTL2    -0.180000       12.0110           0
      8456 MEMB     5        SAPC     H17R     HAL2     0.900000E-01   1.00800           0
      8457 MEMB     5        SAPC     H17S     HAL2     0.900000E-01   1.00800           0
      8458 MEMB     5        SAPC     C218     CTL2    -0.270000       12.0110           0
      8459 MEMB     5        SAPC     H18R     HAL2     0.900000E-01   1.00800           0
      8460 MEMB     5        SAPC     H18S     HAL2     0.900000E-01   1.00800           0
      8461 MEMB     5        SAPC     C219     CTL2    -0.180000       12.0110           0
      8462 MEMB     5        SAPC     H19R     HAL2     0.900000E-01   1.00800           0
      8463 MEMB     5        SAPC     H19S     HAL2     0.900000E-01   1.00800           0
      8464 MEMB     5        SAPC     C220     CTL3    -0.180000       12.0110           0
      8465 MEMB     5        SAPC     H20R     HAL3     0.900000E-01   1.00800           0
      8466 MEMB     5        SAPC     H20S     HAL3     0.900000E-01   1.00800           0
      8467 MEMB     5        SAPC     H20T     HAL3     0.900000E-01   1.00800           0
      8468 MEMB     5        SAPC     C33      CTL2    -0.180000       12.0110           0
      8469 MEMB     5        SAPC     H3X      HAL2     0.900000E-01   1.00800           0
      8470 MEMB     5        SAPC     H3Y      HAL2     0.900000E-01   1.00800           0
      8471 MEMB     5        SAPC     C34      CTL2    -0.180000       12.0110           0
      8472 MEMB     5        SAPC     H4X      HAL2     0.900000E-01   1.00800           0
      8473 MEMB     5        SAPC     H4Y      HAL2     0.900000E-01   1.00800           0
      8474 MEMB     5        SAPC     C35      CTL2    -0.180000       12.0110           0
      8475 MEMB     5        SAPC     H5X      HAL2     0.900000E-01   1.00800           0
      8476 MEMB     5        SAPC     H5Y      HAL2     0.900000E-01   1.00800           0
      8477 MEMB     5        SAPC     C36      CTL2    -0.180000       12.0110           0
      8478 MEMB     5        SAPC     H6X      HAL2     0.900000E-01   1.00800           0
      8479 MEMB     5        SAPC     H6Y      HAL2     0.900000E-01   1.00800           0
      8480 MEMB     5        SAPC     C37      CTL2    -0.180000       12.0110           0
      8481 MEMB     5        SAPC     H7X      HAL2     0.900000E-01   1.00800           0
      8482 MEMB     5        SAPC     H7Y      HAL2     0.900000E-01   1.00800           0
      8483 MEMB     5        SAPC     C38      CTL2    -0.180000       12.0110           0
      8484 MEMB     5        SAPC     H8X      HAL2     0.900000E-01   1.00800           0
      8485 MEMB     5        SAPC     H8Y      HAL2     0.900000E-01   1.00800           0
      8486 MEMB     5        SAPC     C39      CTL2    -0.180000       12.0110           0
      8487 MEMB     5        SAPC     H9X      HAL2     0.900000E-01   1.00800           0
      8488 MEMB     5        SAPC     H9Y      HAL2     0.900000E-01   1.00800           0
      8489 MEMB     5        SAPC     C310     CTL2    -0.180000       12.0110           0
      8490 MEMB     5        SAPC     H10X     HAL2     0.900000E-01   1.00800           0
      8491 MEMB     5        SAPC     H10Y     HAL2     0.900000E-01   1.00800           0
      8492 MEMB     5        SAPC     C311     CTL2    -0.180000       12.0110           0
      8493 MEMB     5        SAPC     H11X     HAL2     0.900000E-01   1.00800           0
      8494 MEMB     5        SAPC     H11Y     HAL2     0.900000E-01   1.00800           0
      8495 MEMB     5        SAPC     C312     CTL2    -0.180000       12.0110           0
      8496 MEMB     5        SAPC     H12X     HAL2     0.900000E-01   1.00800           0
      8497 MEMB     5        SAPC     H12Y     HAL2     0.900000E-01   1.00800           0
      8498 MEMB     5        SAPC     C313     CTL2    -0.180000       12.0110           0
      8499 MEMB     5        SAPC     H13X     HAL2     0.900000E-01   1.00800           0
      8500 MEMB     5        SAPC     H13Y     HAL2     0.900000E-01   1.00800           0
      8501 MEMB     5        SAPC     C314     CTL2    -0.180000       12.0110           0
      8502 MEMB     5        SAPC     H14X     HAL2     0.900000E-01   1.00800           0
      8503 MEMB     5        SAPC     H14Y     HAL2     0.900000E-01   1.00800           0
      8504 MEMB     5        SAPC     C315     CTL2    -0.180000       12.0110           0
      8505 MEMB     5        SAPC     H15X     HAL2     0.900000E-01   1.00800           0
      8506 MEMB     5        SAPC     H15Y     HAL2     0.900000E-01   1.00800           0
      8507 MEMB     5        SAPC     C316     CTL2    -0.180000       12.0110           0
      8508 MEMB     5        SAPC     H16X     HAL2     0.900000E-01   1.00800           0
      8509 MEMB     5        SAPC     H16Y     HAL2     0.900000E-01   1.00800           0
      8510 MEMB     5        SAPC     C317     CTL2    -0.180000       12.0110           0
      8511 MEMB     5        SAPC     H17X     HAL2     0.900000E-01   1.00800           0
      8512 MEMB     5        SAPC     H17Y     HAL2     0.900000E-01   1.00800           0
      8513 MEMB     5        SAPC     C318     CTL3    -0.270000       12.0110           0
      8514 MEMB     5        SAPC     H18X     HAL3     0.900000E-01   1.00800           0
      8515 MEMB     5        SAPC     H18Y     HAL3     0.900000E-01   1.00800           0
      8516 MEMB     5        SAPC     H18Z     HAL3     0.900000E-01   1.00800           0
      8517 MEMB     72       SAPC     N        NTL     -0.600000       14.0070           0
      8518 MEMB     72       SAPC     C12      CTL2    -0.100000       12.0110           0
      8519 MEMB     72       SAPC     H12A     HL       0.250000       1.00800           0
      8520 MEMB     72       SAPC     H12B     HL       0.250000       1.00800           0
      8521 MEMB     72       SAPC     C13      CTL5    -0.350000       12.0110           0
      8522 MEMB     72       SAPC     H13A     HL       0.250000       1.00800           0
      8523 MEMB     72       SAPC     H13B     HL       0.250000       1.00800           0
      8524 MEMB     72       SAPC     H13C     HL       0.250000       1.00800           0
      8525 MEMB     72       SAPC     C14      CTL5    -0.350000       12.0110           0
      8526 MEMB     72       SAPC     H14A     HL       0.250000       1.00800           0
      8527 MEMB     72       SAPC     H14B     HL       0.250000       1.00800           0
      8528 MEMB     72       SAPC     H14C     HL       0.250000       1.00800           0
      8529 MEMB     72       SAPC     C15      CTL5    -0.350000       12.0110           0
      8530 MEMB     72       SAPC     H15A     HL       0.250000       1.00800           0
      8531 MEMB     72       SAPC     H15B     HL       0.250000       1.00800           0
      8532 MEMB     72       SAPC     H15C     HL       0.250000       1.00800           0
      8533 MEMB     72       SAPC     C11      CTL2    -0.800000E-01   12.0110           0
      8534 MEMB     72       SAPC     H11A     HAL2     0.900000E-01   1.00800           0
      8535 MEMB     72       SAPC     H11B     HAL2     0.900000E-01   1.00800           0
      8536 MEMB     72       SAPC     P        PL       1.500000       30.9740           0
      8537 MEMB     72       SAPC     O13      O2L     -0.780000       15.9994           0
      8538 MEMB     72       SAPC     O14      O2L     -0.780000       15.9994           0
      8539 MEMB     72       SAPC     O12      OSLP    -0.570000       15.9994           0
      8540 MEMB     72       SAPC     O11      OSLP    -0.570000       15.9994           0
      8541 MEMB     72       SAPC     C1       CTL2    -0.800000E-01   12.0110           0
      8542 MEMB     72       SAPC     HA       HAL2     0.900000E-01   1.00800           0
      8543 MEMB     72       SAPC     HB       HAL2     0.900000E-01   1.00800           0
      8544 MEMB     72       SAPC     C2       CTL1     0.170000       12.0110           0
      8545 MEMB     72       SAPC     HS       HAL1     0.900000E-01   1.00800           0
      8546 MEMB     72       SAPC     O21      OSL     -0.490000       15.9994           0
      8547 MEMB     72       SAPC     C21      CL       0.900000       12.0110           0
      8548 MEMB     72       SAPC     O22      OBL     -0.630000       15.9994           0
      8549 MEMB     72       SAPC     C22      CTL2    -0.220000       12.0110           0
      8550 MEMB     72       SAPC     H2R      HAL2     0.900000E-01   1.00800           0
      8551 MEMB     72       SAPC     H2S      HAL2     0.900000E-01   1.00800           0
      8552 MEMB     72       SAPC     C3       CTL2     0.800000E-01   12.0110           0
      8553 MEMB     72       SAPC     HX       HAL2     0.900000E-01   1.00800           0
      8554 MEMB     72       SAPC     HY       HAL2     0.900000E-01   1.00800           0
      8555 MEMB     72       SAPC     O31      OSL     -0.490000       15.9994           0
      8556 MEMB     72       SAPC     C31      CL       0.900000       12.0110           0
      8557 MEMB     72       SAPC     O32      OBL     -0.630000       15.9994           0
      8558 MEMB     72       SAPC     C32      CTL2    -0.220000       12.0110           0
      8559 MEMB     72       SAPC     H2X      HAL2     0.900000E-01   1.00800           0
      8560 MEMB     72       SAPC     H2Y      HAL2     0.900000E-01   1.00800           0
      8561 MEMB     72       SAPC     C23      CTL2    -0.180000       12.0110           0
      8562 MEMB     72       SAPC     H3R      HAL2     0.900000E-01   1.00800           0
      8563 MEMB     72       SAPC     H3S      HAL2     0.900000E-01   1.00800           0
      8564 MEMB     72       SAPC     C24      CTL2    -0.180000       12.0110           0
      8565 MEMB     72       SAPC     H4R      HAL2     0.900000E-01   1.00800           0
      8566 MEMB     72       SAPC     H4S      HAL2     0.900000E-01   1.00800           0
      8567 MEMB     72       SAPC     C25      CEL1    -0.150000       12.0110           0
      8568 MEMB     72       SAPC     H5R      HEL1     0.150000       1.00800           0
      8569 MEMB     72       SAPC     C26      CEL1    -0.150000       12.0110           0
      8570 MEMB     72       SAPC     H6R      HEL1     0.150000       1.00800           0
      8571 MEMB     72       SAPC     C27      CTL2    -0.180000       12.0110           0
      8572 MEMB     72       SAPC     H7R      HAL2     0.900000E-01   1.00800           0
      8573 MEMB     72       SAPC     H7S      HAL2     0.900000E-01   1.00800           0
      8574 MEMB     72       SAPC     C28      CEL1    -0.150000       12.0110           0
      8575 MEMB     72       SAPC     H8R      HEL1     0.150000       1.00800           0
      8576 MEMB     72       SAPC     C29      CEL1    -0.150000       12.0110           0
      8577 MEMB     72       SAPC     H9R      HEL1     0.150000       1.00800           0
      8578 MEMB     72       SAPC     C210     CTL2    -0.180000       12.0110           0
      8579 MEMB     72       SAPC     H10R     HAL2     0.900000E-01   1.00800           0
      8580 MEMB     72       SAPC     H10S     HAL2     0.900000E-01   1.00800           0
      8581 MEMB     72       SAPC     C211     CEL1    -0.150000       12.0110           0
      8582 MEMB     72       SAPC     H11R     HEL1     0.150000       1.00800           0
      8583 MEMB     72       SAPC     C212     CEL1    -0.150000       12.0110           0
      8584 MEMB     72       SAPC     H12R     HEL1     0.150000       1.00800           0
      8585 MEMB     72       SAPC     C213     CTL2    -0.180000       12.0110           0
      8586 MEMB     72       SAPC     H13R     HAL2     0.900000E-01   1.00800           0
      8587 MEMB     72       SAPC     H13S     HAL2     0.900000E-01   1.00800           0
      8588 MEMB     72       SAPC     C214     CEL1    -0.150000       12.0110           0
      8589 MEMB     72       SAPC     H14R     HEL1     0.150000       1.00800           0
      8590 MEMB     72       SAPC     C215     CEL1    -0.150000       12.0110           0
      8591 MEMB     72       SAPC     H15R     HEL1     0.150000       1.00800           0
      8592 MEMB     72       SAPC     C216     CTL2    -0.180000       12.0110           0
      8593 MEMB     72       SAPC     H16R     HAL2     0.900000E-01   1.00800           0
      8594 MEMB     72       SAPC     H16S     HAL2     0.900000E-01   1.00800           0
      8595 MEMB     72       SAPC     C217     CTL2    -0.180000       12.0110           0
      8596 MEMB     72       SAPC     H17R     HAL2     0.900000E-01   1.00800           0
      8597 MEMB     72       SAPC     H17S     HAL2     0.900000E-01   1.00800           0
      8598 MEMB     72       SAPC     C218     CTL2    -0.270000       12.0110           0
      8599 MEMB     72       SAPC     H18R     HAL2     0.900000E-01   1.00800           0
      8600 MEMB     72       SAPC     H18S     HAL2     0.900000E-01   1.00800           0
      8601 MEMB     72       SAPC     C219     CTL2    -0.180000       12.0110           0
      8602 MEMB     72       SAPC     H19R     HAL2     0.900000E-01   1.00800           0
      8603 MEMB     72       SAPC     H19S     HAL2     0.900000E-01   1.00800           0
      8604 MEMB     72       SAPC     C220     CTL3    -0.180000       12.0110           0
      8605 MEMB     72       SAPC     H20R     HAL3     0.900000E-01   1.00800           0
      8606 MEMB     72       SAPC     H20S     HAL3     0.900000E-01   1.00800           0
      8607 MEMB     72       SAPC     H20T     HAL3     0.900000E-01   1.00800           0
      8608 MEMB     72       SAPC     C33      CTL2    -0.180000       12.0110           0
      8609 MEMB     72       SAPC     H3X      HAL2     0.900000E-01   1.00800           0
      8610 MEMB     72       SAPC     H3Y      HAL2     0.900000E-01   1.00800           0
      8611 MEMB     72       SAPC     C34      CTL2    -0.180000       12.0110           0
      8612 MEMB     72       SAPC     H4X      HAL2     0.900000E-01   1.00800           0
      8613 MEMB     72       SAPC     H4Y      HAL2     0.900000E-01   1.00800           0
      8614 MEMB     72       SAPC     C35      CTL2    -0.180000       12.0110           0
      8615 MEMB     72       SAPC     H5X      HAL2     0.900000E-01   1.00800           0
      8616 MEMB     72       SAPC     H5Y      HAL2     0.900000E-01   1.00800           0
      8617 MEMB     72       SAPC     C36      CTL2    -0.180000       12.0110           0
      8618 MEMB     72       SAPC     H6X      HAL2     0.900000E-01   1.00800           0
      8619 MEMB     72       SAPC     H6Y      HAL2     0.900000E-01   1.00800           0
      8620 MEMB     72       SAPC     C37      CTL2    -0.180000       12.0110           0
      8621 MEMB     72       SAPC     H7X      HAL2     0.900000E-01   1.00800           0
      8622 MEMB     72       SAPC     H7Y      HAL2     0.900000E-01   1.00800           0
      8623 MEMB     72       SAPC     C38      CTL2    -0.180000       12.0110           0
      8624 MEMB     72       SAPC     H8X      HAL2     0.900000E-01   1.00800           0
      8625 MEMB     72       SAPC     H8Y      HAL2     0.900000E-01   1.00800           0
      8626 MEMB     72       SAPC     C39      CTL2    -0.180000       12.0110           0
      8627 MEMB     72       SAPC     H9X      HAL2     0.900000E-01   1.00800           0
      8628 MEMB     72       SAPC     H9Y      HAL2     0.900000E-01   1.00800           0
      8629 MEMB     72       SAPC     C310     CTL2    -0.180000       12.0110           0
      8630 MEMB     72       SAPC     H10X     HAL2     0.900000E-01   1.00800           0
      8631 MEMB     72       SAPC     H10Y     HAL2     0.900000E-01   1.00800           0
      8632 MEMB     72       SAPC     C311     CTL2    -0.180000       12.0110           0
      8633 MEMB     72       SAPC     H11X     HAL2     0.900000E-01   1.00800           0
      8634 MEMB     72       SAPC     H11Y     HAL2     0.900000E-01   1.00800           0
      8635 MEMB     72       SAPC     C312     CTL2    -0.180000       12.0110           0
      8636 MEMB     72       SAPC     H12X     HAL2     0.900000E-01   1.00800           0
      8637 MEMB     72       SAPC     H12Y     HAL2     0.900000E-01   1.00800           0
      8638 MEMB     72       SAPC     C313     CTL2    -0.180000       12.0110           0
      8639 MEMB     72       SAPC     H13X     HAL2     0.900000E-01   1.00800           0
      8640 MEMB     72       SAPC     H13Y     HAL2     0.900000E-01   1.00800           0
      8641 MEMB     72       SAPC     C314     CTL2    -0.180000       12.0110           0
      8642 MEMB     72       SAPC     H14X     HAL2     0.900000E-01   1.00800           0
      8643 MEMB     72       SAPC     H14Y     HAL2     0.900000E-01   1.00800           0
      8644 MEMB     72       SAPC     C315     CTL2    -0.180000       12.0110           0
      8645 MEMB     72       SAPC     H15X     HAL2     0.900000E-01   1.00800           0
      8646 MEMB     72       SAPC     H15Y     HAL2     0.900000E-01   1.00800           0
      8647 MEMB     72       SAPC     C316     CTL2    -0.180000       12.0110           0
      8648 MEMB     72       SAPC     H16X     HAL2     0.900000E-01   1.00800           0
      8649 MEMB     72       SAPC     H16Y     HAL2     0.900000E-01   1.00800           0
      8650 MEMB     72       SAPC     C317     CTL2    -0.180000       12.0110           0
      8651 MEMB     72       SAPC     H17X     HAL2     0.900000E-01   1.00800           0
      8652 MEMB     72       SAPC     H17Y     HAL2     0.900000E-01   1.00800           0
      8653 MEMB     72       SAPC     C318     CTL3    -0.270000       12.0110           0
      8654 MEMB     72       SAPC     H18X     HAL3     0.900000E-01   1.00800           0
      8655 MEMB     72       SAPC     H18Y     HAL3     0.900000E-01   1.00800           0
      8656 MEMB     72       SAPC     H18Z     HAL3     0.900000E-01   1.00800           0
      8657 MEMB     84       SAPC     N        NTL     -0.600000       14.0070           0
      8658 MEMB     84       SAPC     C12      CTL2    -0.100000       12.0110           0
      8659 MEMB     84       SAPC     H12A     HL       0.250000       1.00800           0
      8660 MEMB     84       SAPC     H12B     HL       0.250000       1.00800           0
      8661 MEMB     84       SAPC     C13      CTL5    -0.350000       12.0110           0
      8662 MEMB     84       SAPC     H13A     HL       0.250000       1.00800           0
      8663 MEMB     84       SAPC     H13B     HL       0.250000       1.00800           0
      8664 MEMB     84       SAPC     H13C     HL       0.250000       1.00800           0
      8665 MEMB     84       SAPC     C14      CTL5    -0.350000       12.0110           0
      8666 MEMB     84       SAPC     H14A     HL       0.250000       1.00800           0
      8667 MEMB     84       SAPC     H14B     HL       0.250000       1.00800           0
      8668 MEMB     84       SAPC     H14C     HL       0.250000       1.00800           0
      8669 MEMB     84       SAPC     C15      CTL5    -0.350000       12.0110           0
      8670 MEMB     84       SAPC     H15A     HL       0.250000       1.00800           0
      8671 MEMB     84       SAPC     H15B     HL       0.250000       1.00800           0
      8672 MEMB     84       SAPC     H15C     HL       0.250000       1.00800           0
      8673 MEMB     84       SAPC     C11      CTL2    -0.800000E-01   12.0110           0
      8674 MEMB     84       SAPC     H11A     HAL2     0.900000E-01   1.00800           0
      8675 MEMB     84       SAPC     H11B     HAL2     0.900000E-01   1.00800           0
      8676 MEMB     84       SAPC     P        PL       1.500000       30.9740           0
      8677 MEMB     84       SAPC     O13      O2L     -0.780000       15.9994           0
      8678 MEMB     84       SAPC     O14      O2L     -0.780000       15.9994           0
      8679 MEMB     84       SAPC     O12      OSLP    -0.570000       15.9994           0
      8680 MEMB     84       SAPC     O11      OSLP    -0.570000       15.9994           0
      8681 MEMB     84       SAPC     C1       CTL2    -0.800000E-01   12.0110           0
      8682 MEMB     84       SAPC     HA       HAL2     0.900000E-01   1.00800           0
      8683 MEMB     84       SAPC     HB       HAL2     0.900000E-01   1.00800           0
      8684 MEMB     84       SAPC     C2       CTL1     0.170000       12.0110           0
      8685 MEMB     84       SAPC     HS       HAL1     0.900000E-01   1.00800           0
      8686 MEMB     84       SAPC     O21      OSL     -0.490000       15.9994           0
      8687 MEMB     84       SAPC     C21      CL       0.900000       12.0110           0
      8688 MEMB     84       SAPC     O22      OBL     -0.630000       15.9994           0
      8689 MEMB     84       SAPC     C22      CTL2    -0.220000       12.0110           0
      8690 MEMB     84       SAPC     H2R      HAL2     0.900000E-01   1.00800           0
      8691 MEMB     84       SAPC     H2S      HAL2     0.900000E-01   1.00800           0
      8692 MEMB     84       SAPC     C3       CTL2     0.800000E-01   12.0110           0
      8693 MEMB     84       SAPC     HX       HAL2     0.900000E-01   1.00800           0
      8694 MEMB     84       SAPC     HY       HAL2     0.900000E-01   1.00800           0
      8695 MEMB     84       SAPC     O31      OSL     -0.490000       15.9994           0
      8696 MEMB     84       SAPC     C31      CL       0.900000       12.0110           0
      8697 MEMB     84       SAPC     O32      OBL     -0.630000       15.9994           0
      8698 MEMB     84       SAPC     C32      CTL2    -0.220000       12.0110           0
      8699 MEMB     84       SAPC     H2X      HAL2     0.900000E-01   1.00800           0
      8700 MEMB     84       SAPC     H2Y      HAL2     0.900000E-01   1.00800           0
      8701 MEMB     84       SAPC     C23      CTL2    -0.180000       12.0110           0
      8702 MEMB     84       SAPC     H3R      HAL2     0.900000E-01   1.00800           0
      8703 MEMB     84       SAPC     H3S      HAL2     0.900000E-01   1.00800           0
      8704 MEMB     84       SAPC     C24      CTL2    -0.180000       12.0110           0
      8705 MEMB     84       SAPC     H4R      HAL2     0.900000E-01   1.00800           0
      8706 MEMB     84       SAPC     H4S      HAL2     0.900000E-01   1.00800           0
      8707 MEMB     84       SAPC     C25      CEL1    -0.150000       12.0110           0
      8708 MEMB     84       SAPC     H5R      HEL1     0.150000       1.00800           0
      8709 MEMB     84       SAPC     C26      CEL1    -0.150000       12.0110           0
      8710 MEMB     84       SAPC     H6R      HEL1     0.150000       1.00800           0
      8711 MEMB     84       SAPC     C27      CTL2    -0.180000       12.0110           0
      8712 MEMB     84       SAPC     H7R      HAL2     0.900000E-01   1.00800           0
      8713 MEMB     84       SAPC     H7S      HAL2     0.900000E-01   1.00800           0
      8714 MEMB     84       SAPC     C28      CEL1    -0.150000       12.0110           0
      8715 MEMB     84       SAPC     H8R      HEL1     0.150000       1.00800           0
      8716 MEMB     84       SAPC     C29      CEL1    -0.150000       12.0110           0
      8717 MEMB     84       SAPC     H9R      HEL1     0.150000       1.00800           0
      8718 MEMB     84       SAPC     C210     CTL2    -0.180000       12.0110           0
      8719 MEMB     84       SAPC     H10R     HAL2     0.900000E-01   1.00800           0
      8720 MEMB     84       SAPC     H10S     HAL2     0.900000E-01   1.00800           0
      8721 MEMB     84       SAPC     C211     CEL1    -0.150000       12.0110           0
      8722 MEMB     84       SAPC     H11R     HEL1     0.150000       1.00800           0
      8723 MEMB     84       SAPC     C212     CEL1    -0.150000       12.0110           0
      8724 MEMB     84       SAPC     H12R     HEL1     0.150000       1.00800           0
      8725 MEMB     84       SAPC     C213     CTL2    -0.180000       12.0110           0
      8726 MEMB     84       SAPC     H13R     HAL2     0.900000E-01   1.00800           0
      8727 MEMB     84       SAPC     H13S     HAL2     0.900000E-01   1.00800           0
      8728 MEMB     84       SAPC     C214     CEL1    -0.150000       12.0110           0
      8729 MEMB     84       SAPC     H14R     HEL1     0.150000       1.00800           0
      8730 MEMB     84       SAPC     C215     CEL1    -0.150000       12.0110           0
      8731 MEMB     84       SAPC     H15R     HEL1     0.150000       1.00800           0
      8732 MEMB     84       SAPC     C216     CTL2    -0.180000       12.0110           0
      8733 MEMB     84       SAPC     H16R     HAL2     0.900000E-01   1.00800           0
      8734 MEMB     84       SAPC     H16S     HAL2     0.900000E-01   1.00800           0
      8735 MEMB     84       SAPC     C217     CTL2    -0.180000       12.0110           0
      8736 MEMB     84       SAPC     H17R     HAL2     0.900000E-01   1.00800           0
      8737 MEMB     84       SAPC     H17S     HAL2     0.900000E-01   1.00800           0
      8738 MEMB     84       SAPC     C218     CTL2    -0.270000       12.0110           0
      8739 MEMB     84       SAPC     H18R     HAL2     0.900000E-01   1.00800           0
      8740 MEMB     84       SAPC     H18S     HAL2     0.900000E-01   1.00800           0
      8741 MEMB     84       SAPC     C219     CTL2    -0.180000       12.0110           0
      8742 MEMB     84       SAPC     H19R     HAL2     0.900000E-01   1.00800           0
      8743 MEMB     84       SAPC     H19S     HAL2     0.900000E-01   1.00800           0
      8744 MEMB     84       SAPC     C220     CTL3    -0.180000       12.0110           0
      8745 MEMB     84       SAPC     H20R     HAL3     0.900000E-01   1.00800           0
      8746 MEMB     84       SAPC     H20S     HAL3     0.900000E-01   1.00800           0
      8747 MEMB     84       SAPC     H20T     HAL3     0.900000E-01   1.00800           0
      8748 MEMB     84       SAPC     C33      CTL2    -0.180000       12.0110           0
      8749 MEMB     84       SAPC     H3X      HAL2     0.900000E-01   1.00800           0
      8750 MEMB     84       SAPC     H3Y      HAL2     0.900000E-01   1.00800           0
      8751 MEMB     84       SAPC     C34      CTL2    -0.180000       12.0110           0
      8752 MEMB     84       SAPC     H4X      HAL2     0.900000E-01   1.00800           0
      8753 MEMB     84       SAPC     H4Y      HAL2     0.900000E-01   1.00800           0
      8754 MEMB     84       SAPC     C35      CTL2    -0.180000       12.0110           0
      8755 MEMB     84       SAPC     H5X      HAL2     0.900000E-01   1.00800           0
      8756 MEMB     84       SAPC     H5Y      HAL2     0.900000E-01   1.00800           0
      8757 MEMB     84       SAPC     C36      CTL2    -0.180000       12.0110           0
      8758 MEMB     84       SAPC     H6X      HAL2     0.900000E-01   1.00800           0
      8759 MEMB     84       SAPC     H6Y      HAL2     0.900000E-01   1.00800           0
      8760 MEMB     84       SAPC     C37      CTL2    -0.180000       12.0110           0
      8761 MEMB     84       SAPC     H7X      HAL2     0.900000E-01   1.00800           0
      8762 MEMB     84       SAPC     H7Y      HAL2     0.900000E-01   1.00800           0
      8763 MEMB     84       SAPC     C38      CTL2    -0.180000       12.0110           0
      8764 MEMB     84       SAPC     H8X      HAL2     0.900000E-01   1.00800           0
      8765 MEMB     84       SAPC     H8Y      HAL2     0.900000E-01   1.00800           0
      8766 MEMB     84       SAPC     C39      CTL2    -0.180000       12.0110           0
      8767 MEMB     84       SAPC     H9X      HAL2     0.900000E-01   1.00800           0
      8768 MEMB     84       SAPC     H9Y      HAL2     0.900000E-01   1.00800           0
      8769 MEMB     84       SAPC     C310     CTL2    -0.180000       12.0110           0
      8770 MEMB     84       SAPC     H10X     HAL2     0.900000E-01   1.00800           0
      8771 MEMB     84       SAPC     H10Y     HAL2     0.900000E-01   1.00800           0
      8772 MEMB     84       SAPC     C311     CTL2    -0.180000       12.0110           0
      8773 MEMB     84       SAPC     H11X     HAL2     0.900000E-01   1.00800           0
      8774 MEMB     84       SAPC     H11Y     HAL2     0.900000E-01   1.00800           0
      8775 MEMB     84       SAPC     C312     CTL2    -0.180000       12.0110           0
      8776 MEMB     84       SAPC     H12X     HAL2     0.900000E-01   1.00800           0
      8777 MEMB     84       SAPC     H12Y     HAL2     0.900000E-01   1.00800           0
      8778 MEMB     84       SAPC     C313     CTL2    -0.180000       12.0110           0
      8779 MEMB     84       SAPC     H13X     HAL2     0.900000E-01   1.00800           0
      8780 MEMB     84       SAPC     H13Y     HAL2     0.900000E-01   1.00800           0
      8781 MEMB     84       SAPC     C314     CTL2    -0.180000       12.0110           0
      8782 MEMB     84       SAPC     H14X     HAL2     0.900000E-01   1.00800           0
      8783 MEMB     84       SAPC     H14Y     HAL2     0.900000E-01   1.00800           0
      8784 MEMB     84       SAPC     C315     CTL2    -0.180000       12.0110           0
      8785 MEMB     84       SAPC     H15X     HAL2     0.900000E-01   1.00800           0
      8786 MEMB     84       SAPC     H15Y     HAL2     0.900000E-01   1.00800           0
      8787 MEMB     84       SAPC     C316     CTL2    -0.180000       12.0110           0
      8788 MEMB     84       SAPC     H16X     HAL2     0.900000E-01   1.00800           0
      8789 MEMB     84       SAPC     H16Y     HAL2     0.900000E-01   1.00800           0
      8790 MEMB     84       SAPC     C317     CTL2    -0.180000       12.0110           0
      8791 MEMB     84       SAPC     H17X     HAL2     0.900000E-01   1.00800           0
      8792 MEMB     84       SAPC     H17Y     HAL2     0.900000E-01   1.00800           0
      8793 MEMB     84       SAPC     C318     CTL3    -0.270000       12.0110           0
      8794 MEMB     84       SAPC     H18X     HAL3     0.900000E-01   1.00800           0
      8795 MEMB     84       SAPC     H18Y     HAL3     0.900000E-01   1.00800           0
      8796 MEMB     84       SAPC     H18Z     HAL3     0.900000E-01   1.00800           0
      8797 MEMB     92       SAPC     N        NTL     -0.600000       14.0070           0
      8798 MEMB     92       SAPC     C12      CTL2    -0.100000       12.0110           0
      8799 MEMB     92       SAPC     H12A     HL       0.250000       1.00800           0
      8800 MEMB     92       SAPC     H12B     HL       0.250000       1.00800           0
      8801 MEMB     92       SAPC     C13      CTL5    -0.350000       12.0110           0
      8802 MEMB     92       SAPC     H13A     HL       0.250000       1.00800           0
      8803 MEMB     92       SAPC     H13B     HL       0.250000       1.00800           0
      8804 MEMB     92       SAPC     H13C     HL       0.250000       1.00800           0
      8805 MEMB     92       SAPC     C14      CTL5    -0.350000       12.0110           0
      8806 MEMB     92       SAPC     H14A     HL       0.250000       1.00800           0
      8807 MEMB     92       SAPC     H14B     HL       0.250000       1.00800           0
      8808 MEMB     92       SAPC     H14C     HL       0.250000       1.00800           0
      8809 MEMB     92       SAPC     C15      CTL5    -0.350000       12.0110           0
      8810 MEMB     92       SAPC     H15A     HL       0.250000       1.00800           0
      8811 MEMB     92       SAPC     H15B     HL       0.250000       1.00800           0
      8812 MEMB     92       SAPC     H15C     HL       0.250000       1.00800           0
      8813 MEMB     92       SAPC     C11      CTL2    -0.800000E-01   12.0110           0
      8814 MEMB     92       SAPC     H11A     HAL2     0.900000E-01   1.00800           0
      8815 MEMB     92       SAPC     H11B     HAL2     0.900000E-01   1.00800           0
      8816 MEMB     92       SAPC     P        PL       1.500000       30.9740           0
      8817 MEMB     92       SAPC     O13      O2L     -0.780000       15.9994           0
      8818 MEMB     92       SAPC     O14      O2L     -0.780000       15.9994           0
      8819 MEMB     92       SAPC     O12      OSLP    -0.570000       15.9994           0
      8820 MEMB     92       SAPC     O11      OSLP    -0.570000       15.9994           0
      8821 MEMB     92       SAPC     C1       CTL2    -0.800000E-01   12.0110           0
      8822 MEMB     92       SAPC     HA       HAL2     0.900000E-01   1.00800           0
      8823 MEMB     92       SAPC     HB       HAL2     0.900000E-01   1.00800           0
      8824 MEMB     92       SAPC     C2       CTL1     0.170000       12.0110           0
      8825 MEMB     92       SAPC     HS       HAL1     0.900000E-01   1.00800           0
      8826 MEMB     92       SAPC     O21      OSL     -0.490000       15.9994           0
      8827 MEMB     92       SAPC     C21      CL       0.900000       12.0110           0
      8828 MEMB     92       SAPC     O22      OBL     -0.630000       15.9994           0
      8829 MEMB     92       SAPC     C22      CTL2    -0.220000       12.0110           0
      8830 MEMB     92       SAPC     H2R      HAL2     0.900000E-01   1.00800           0
      8831 MEMB     92       SAPC     H2S      HAL2     0.900000E-01   1.00800           0
      8832 MEMB     92       SAPC     C3       CTL2     0.800000E-01   12.0110           0
      8833 MEMB     92       SAPC     HX       HAL2     0.900000E-01   1.00800           0
      8834 MEMB     92       SAPC     HY       HAL2     0.900000E-01   1.00800           0
      8835 MEMB     92       SAPC     O31      OSL     -0.490000       15.9994           0
      8836 MEMB     92       SAPC     C31      CL       0.900000       12.0110           0
      8837 MEMB     92       SAPC     O32      OBL     -0.630000       15.9994           0
      8838 MEMB     92       SAPC     C32      CTL2    -0.220000       12.0110           0
      8839 MEMB     92       SAPC     H2X      HAL2     0.900000E-01   1.00800           0
      8840 MEMB     92       SAPC     H2Y      HAL2     0.900000E-01   1.00800           0
      8841 MEMB     92       SAPC     C23      CTL2    -0.180000       12.0110           0
      8842 MEMB     92       SAPC     H3R      HAL2     0.900000E-01   1.00800           0
      8843 MEMB     92       SAPC     H3S      HAL2     0.900000E-01   1.00800           0
      8844 MEMB     92       SAPC     C24      CTL2    -0.180000       12.0110           0
      8845 MEMB     92       SAPC     H4R      HAL2     0.900000E-01   1.00800           0
      8846 MEMB     92       SAPC     H4S      HAL2     0.900000E-01   1.00800           0
      8847 MEMB     92       SAPC     C25      CEL1    -0.150000       12.0110           0
      8848 MEMB     92       SAPC     H5R      HEL1     0.150000       1.00800           0
      8849 MEMB     92       SAPC     C26      CEL1    -0.150000       12.0110           0
      8850 MEMB     92       SAPC     H6R      HEL1     0.150000       1.00800           0
      8851 MEMB     92       SAPC     C27      CTL2    -0.180000       12.0110           0
      8852 MEMB     92       SAPC     H7R      HAL2     0.900000E-01   1.00800           0
      8853 MEMB     92       SAPC     H7S      HAL2     0.900000E-01   1.00800           0
      8854 MEMB     92       SAPC     C28      CEL1    -0.150000       12.0110           0
      8855 MEMB     92       SAPC     H8R      HEL1     0.150000       1.00800           0
      8856 MEMB     92       SAPC     C29      CEL1    -0.150000       12.0110           0
      8857 MEMB     92       SAPC     H9R      HEL1     0.150000       1.00800           0
      8858 MEMB     92       SAPC     C210     CTL2    -0.180000       12.0110           0
      8859 MEMB     92       SAPC     H10R     HAL2     0.900000E-01   1.00800           0
      8860 MEMB     92       SAPC     H10S     HAL2     0.900000E-01   1.00800           0
      8861 MEMB     92       SAPC     C211     CEL1    -0.150000       12.0110           0
      8862 MEMB     92       SAPC     H11R     HEL1     0.150000       1.00800           0
      8863 MEMB     92       SAPC     C212     CEL1    -0.150000       12.0110           0
      8864 MEMB     92       SAPC     H12R     HEL1     0.150000       1.00800           0
      8865 MEMB     92       SAPC     C213     CTL2    -0.180000       12.0110           0
      8866 MEMB     92       SAPC     H13R     HAL2     0.900000E-01   1.00800           0
      8867 MEMB     92       SAPC     H13S     HAL2     0.900000E-01   1.00800           0
      8868 MEMB     92       SAPC     C214     CEL1    -0.150000       12.0110           0
      8869 MEMB     92       SAPC     H14R     HEL1     0.150000       1.00800           0
      8870 MEMB     92       SAPC     C215     CEL1    -0.150000       12.0110           0
      8871 MEMB     92       SAPC     H15R     HEL1     0.150000       1.00800           0
      8872 MEMB     92       SAPC     C216     CTL2    -0.180000       12.0110           0
      8873 MEMB     92       SAPC     H16R     HAL2     0.900000E-01   1.00800           0
      8874 MEMB     92       SAPC     H16S     HAL2     0.900000E-01   1.00800           0
      8875 MEMB     92       SAPC     C217     CTL2    -0.180000       12.0110           0
      8876 MEMB     92       SAPC     H17R     HAL2     0.900000E-01   1.00800           0
      8877 MEMB     92       SAPC     H17S     HAL2     0.900000E-01   1.00800           0
      8878 MEMB     92       SAPC     C218     CTL2    -0.270000       12.0110           0
      8879 MEMB     92       SAPC     H18R     HAL2     0.900000E-01   1.00800           0
      8880 MEMB     92       SAPC     H18S     HAL2     0.900000E-01   1.00800           0
      8881 MEMB     92       SAPC     C219     CTL2    -0.180000       12.0110           0
      8882 MEMB     92       SAPC     H19R     HAL2     0.900000E-01   1.00800           0
      8883 MEMB     92       SAPC     H19S     HAL2     0.900000E-01   1.00800           0
      8884 MEMB     92       SAPC     C220     CTL3    -0.180000       12.0110           0
      8885 MEMB     92       SAPC     H20R     HAL3     0.900000E-01   1.00800           0
      8886 MEMB     92       SAPC     H20S     HAL3     0.900000E-01   1.00800           0
      8887 MEMB     92       SAPC     H20T     HAL3     0.900000E-01   1.00800           0
      8888 MEMB     92       SAPC     C33      CTL2    -0.180000       12.0110           0
      8889 MEMB     92       SAPC     H3X      HAL2     0.900000E-01   1.00800           0
      8890 MEMB     92       SAPC     H3Y      HAL2     0.900000E-01   1.00800           0
      8891 MEMB     92       SAPC     C34      CTL2    -0.180000       12.0110           0
      8892 MEMB     92       SAPC     H4X      HAL2     0.900000E-01   1.00800           0
      8893 MEMB     92       SAPC     H4Y      HAL2     0.900000E-01   1.00800           0
      8894 MEMB     92       SAPC     C35      CTL2    -0.180000       12.0110           0
      8895 MEMB     92       SAPC     H5X      HAL2     0.900000E-01   1.00800           0
      8896 MEMB     92       SAPC     H5Y      HAL2     0.900000E-01   1.00800           0
      8897 MEMB     92       SAPC     C36      CTL2    -0.180000       12.0110           0
      8898 MEMB     92       SAPC     H6X      HAL2     0.900000E-01   1.00800           0
      8899 MEMB     92       SAPC     H6Y      HAL2     0.900000E-01   1.00800           0
      8900 MEMB     92       SAPC     C37      CTL2    -0.180000       12.0110           0
      8901 MEMB     92       SAPC     H7X      HAL2     0.900000E-01   1.00800           0
      8902 MEMB     92       SAPC     H7Y      HAL2     0.900000E-01   1.00800           0
      8903 MEMB     92       SAPC     C38      CTL2    -0.180000       12.0110           0
      8904 MEMB     92       SAPC     H8X      HAL2     0.900000E-01   1.00800           0
      8905 MEMB     92       SAPC     H8Y      HAL2     0.900000E-01   1.00800           0
      8906 MEMB     92       SAPC     C39      CTL2    -0.180000       12.0110           0
      8907 MEMB     92       SAPC     H9X      HAL2     0.900000E-01   1.00800           0
      8908 MEMB     92       SAPC     H9Y      HAL2     0.900000E-01   1.00800           0
      8909 MEMB     92       SAPC     C310     CTL2    -0.180000       12.0110           0
      8910 MEMB     92       SAPC     H10X     HAL2     0.900000E-01   1.00800           0
      8911 MEMB     92       SAPC     H10Y     HAL2     0.900000E-01   1.00800           0
      8912 MEMB     92       SAPC     C311     CTL2    -0.180000       12.0110           0
      8913 MEMB     92       SAPC     H11X     HAL2     0.900000E-01   1.00800           0
      8914 MEMB     92       SAPC     H11Y     HAL2     0.900000E-01   1.00800           0
      8915 MEMB     92       SAPC     C312     CTL2    -0.180000       12.0110           0
      8916 MEMB     92       SAPC     H12X     HAL2     0.900000E-01   1.00800           0
      8917 MEMB     92       SAPC     H12Y     HAL2     0.900000E-01   1.00800           0
      8918 MEMB     92       SAPC     C313     CTL2    -0.180000       12.0110           0
      8919 MEMB     92       SAPC     H13X     HAL2     0.900000E-01   1.00800           0
      8920 MEMB     92       SAPC     H13Y     HAL2     0.900000E-01   1.00800           0
      8921 MEMB     92       SAPC     C314     CTL2    -0.180000       12.0110           0
      8922 MEMB     92       SAPC     H14X     HAL2     0.900000E-01   1.00800           0
      8923 MEMB     92       SAPC     H14Y     HAL2     0.900000E-01   1.00800           0
      8924 MEMB     92       SAPC     C315     CTL2    -0.180000       12.0110           0
      8925 MEMB     92       SAPC     H15X     HAL2     0.900000E-01   1.00800           0
      8926 MEMB     92       SAPC     H15Y     HAL2     0.900000E-01   1.00800           0
      8927 MEMB     92       SAPC     C316     CTL2    -0.180000       12.0110           0
      8928 MEMB     92       SAPC     H16X     HAL2     0.900000E-01   1.00800           0
      8929 MEMB     92       SAPC     H16Y     HAL2     0.900000E-01   1.00800           0
      8930 MEMB     92       SAPC     C317     CTL2    -0.180000       12.0110           0
      8931 MEMB     92       SAPC     H17X     HAL2     0.900000E-01   1.00800           0
      8932 MEMB     92       SAPC     H17Y     HAL2     0.900000E-01   1.00800           0
      8933 MEMB     92       SAPC     C318     CTL3    -0.270000       12.0110           0
      8934 MEMB     92       SAPC     H18X     HAL3     0.900000E-01   1.00800           0
      8935 MEMB     92       SAPC     H18Y     HAL3     0.900000E-01   1.00800           0
      8936 MEMB     92       SAPC     H18Z     HAL3     0.900000E-01   1.00800           0
      8937 MEMB     94       SAPC     N        NTL     -0.600000       14.0070           0
      8938 MEMB     94       SAPC     C12      CTL2    -0.100000       12.0110           0
      8939 MEMB     94       SAPC     H12A     HL       0.250000       1.00800           0
      8940 MEMB     94       SAPC     H12B     HL       0.250000       1.00800           0
      8941 MEMB     94       SAPC     C13      CTL5    -0.350000       12.0110           0
      8942 MEMB     94       SAPC     H13A     HL       0.250000       1.00800           0
      8943 MEMB     94       SAPC     H13B     HL       0.250000       1.00800           0
      8944 MEMB     94       SAPC     H13C     HL       0.250000       1.00800           0
      8945 MEMB     94       SAPC     C14      CTL5    -0.350000       12.0110           0
      8946 MEMB     94       SAPC     H14A     HL       0.250000       1.00800           0
      8947 MEMB     94       SAPC     H14B     HL       0.250000       1.00800           0
      8948 MEMB     94       SAPC     H14C     HL       0.250000       1.00800           0
      8949 MEMB     94       SAPC     C15      CTL5    -0.350000       12.0110           0
      8950 MEMB     94       SAPC     H15A     HL       0.250000       1.00800           0
      8951 MEMB     94       SAPC     H15B     HL       0.250000       1.00800           0
      8952 MEMB     94       SAPC     H15C     HL       0.250000       1.00800           0
      8953 MEMB     94       SAPC     C11      CTL2    -0.800000E-01   12.0110           0
      8954 MEMB     94       SAPC     H11A     HAL2     0.900000E-01   1.00800           0
      8955 MEMB     94       SAPC     H11B     HAL2     0.900000E-01   1.00800           0
      8956 MEMB     94       SAPC     P        PL       1.500000       30.9740           0
      8957 MEMB     94       SAPC     O13      O2L     -0.780000       15.9994           0
      8958 MEMB     94       SAPC     O14      O2L     -0.780000       15.9994           0
      8959 MEMB     94       SAPC     O12      OSLP    -0.570000       15.9994           0
      8960 MEMB     94       SAPC     O11      OSLP    -0.570000       15.9994           0
      8961 MEMB     94       SAPC     C1       CTL2    -0.800000E-01   12.0110           0
      8962 MEMB     94       SAPC     HA       HAL2     0.900000E-01   1.00800           0
      8963 MEMB     94       SAPC     HB       HAL2     0.900000E-01   1.00800           0
      8964 MEMB     94       SAPC     C2       CTL1     0.170000       12.0110           0
      8965 MEMB     94       SAPC     HS       HAL1     0.900000E-01   1.00800           0
      8966 MEMB     94       SAPC     O21      OSL     -0.490000       15.9994           0
      8967 MEMB     94       SAPC     C21      CL       0.900000       12.0110           0
      8968 MEMB     94       SAPC     O22      OBL     -0.630000       15.9994           0
      8969 MEMB     94       SAPC     C22      CTL2    -0.220000       12.0110           0
      8970 MEMB     94       SAPC     H2R      HAL2     0.900000E-01   1.00800           0
      8971 MEMB     94       SAPC     H2S      HAL2     0.900000E-01   1.00800           0
      8972 MEMB     94       SAPC     C3       CTL2     0.800000E-01   12.0110           0
      8973 MEMB     94       SAPC     HX       HAL2     0.900000E-01   1.00800           0
      8974 MEMB     94       SAPC     HY       HAL2     0.900000E-01   1.00800           0
      8975 MEMB     94       SAPC     O31      OSL     -0.490000       15.9994           0
      8976 MEMB     94       SAPC     C31      CL       0.900000       12.0110           0
      8977 MEMB     94       SAPC     O32      OBL     -0.630000       15.9994           0
      8978 MEMB     94       SAPC     C32      CTL2    -0.220000       12.0110           0
      8979 MEMB     94       SAPC     H2X      HAL2     0.900000E-01   1.00800           0
      8980 MEMB     94       SAPC     H2Y      HAL2     0.900000E-01   1.00800           0
      8981 MEMB     94       SAPC     C23      CTL2    -0.180000       12.0110           0
      8982 MEMB     94       SAPC     H3R      HAL2     0.900000E-01   1.00800           0
      8983 MEMB     94       SAPC     H3S      HAL2     0.900000E-01   1.00800           0
      8984 MEMB     94       SAPC     C24      CTL2    -0.180000       12.0110           0
      8985 MEMB     94       SAPC     H4R      HAL2     0.900000E-01   1.00800           0
      8986 MEMB     94       SAPC     H4S      HAL2     0.900000E-01   1.00800           0
      8987 MEMB     94       SAPC     C25      CEL1    -0.150000       12.0110           0
      8988 MEMB     94       SAPC     H5R      HEL1     0.150000       1.00800           0
      8989 MEMB     94       SAPC     C26      CEL1    -0.150000       12.0110           0
      8990 MEMB     94       SAPC     H6R      HEL1     0.150000       1.00800           0
      8991 MEMB     94       SAPC     C27      CTL2    -0.180000       12.0110           0
      8992 MEMB     94       SAPC     H7R      HAL2     0.900000E-01   1.00800           0
      8993 MEMB     94       SAPC     H7S      HAL2     0.900000E-01   1.00800           0
      8994 MEMB     94       SAPC     C28      CEL1    -0.150000       12.0110           0
      8995 MEMB     94       SAPC     H8R      HEL1     0.150000       1.00800           0
      8996 MEMB     94       SAPC     C29      CEL1    -0.150000       12.0110           0
      8997 MEMB     94       SAPC     H9R      HEL1     0.150000       1.00800           0
      8998 MEMB     94       SAPC     C210     CTL2    -0.180000       12.0110           0
      8999 MEMB     94       SAPC     H10R     HAL2     0.900000E-01   1.00800           0
      9000 MEMB     94       SAPC     H10S     HAL2     0.900000E-01   1.00800           0
      9001 MEMB     94       SAPC     C211     CEL1    -0.150000       12.0110           0
      9002 MEMB     94       SAPC     H11R     HEL1     0.150000       1.00800           0
      9003 MEMB     94       SAPC     C212     CEL1    -0.150000       12.0110           0
      9004 MEMB     94       SAPC     H12R     HEL1     0.150000       1.00800           0
      9005 MEMB     94       SAPC     C213     CTL2    -0.180000       12.0110           0
      9006 MEMB     94       SAPC     H13R     HAL2     0.900000E-01   1.00800           0
      9007 MEMB     94       SAPC     H13S     HAL2     0.900000E-01   1.00800           0
      9008 MEMB     94       SAPC     C214     CEL1    -0.150000       12.0110           0
      9009 MEMB     94       SAPC     H14R     HEL1     0.150000       1.00800           0
      9010 MEMB     94       SAPC     C215     CEL1    -0.150000       12.0110           0
      9011 MEMB     94       SAPC     H15R     HEL1     0.150000       1.00800           0
      9012 MEMB     94       SAPC     C216     CTL2    -0.180000       12.0110           0
      9013 MEMB     94       SAPC     H16R     HAL2     0.900000E-01   1.00800           0
      9014 MEMB     94       SAPC     H16S     HAL2     0.900000E-01   1.00800           0
      9015 MEMB     94       SAPC     C217     CTL2    -0.180000       12.0110           0
      9016 MEMB     94       SAPC     H17R     HAL2     0.900000E-01   1.00800           0
      9017 MEMB     94       SAPC     H17S     HAL2     0.900000E-01   1.00800           0
      9018 MEMB     94       SAPC     C218     CTL2    -0.270000       12.0110           0
      9019 MEMB     94       SAPC     H18R     HAL2     0.900000E-01   1.00800           0
      9020 MEMB     94       SAPC     H18S     HAL2     0.900000E-01   1.00800           0
      9021 MEMB     94       SAPC     C219     CTL2    -0.180000       12.0110           0
      9022 MEMB     94       SAPC     H19R     HAL2     0.900000E-01   1.00800           0
      9023 MEMB     94       SAPC     H19S     HAL2     0.900000E-01   1.00800           0
      9024 MEMB     94       SAPC     C220     CTL3    -0.180000       12.0110           0
      9025 MEMB     94       SAPC     H20R     HAL3     0.900000E-01   1.00800           0
      9026 MEMB     94       SAPC     H20S     HAL3     0.900000E-01   1.00800           0
      9027 MEMB     94       SAPC     H20T     HAL3     0.900000E-01   1.00800           0
      9028 MEMB     94       SAPC     C33      CTL2    -0.180000       12.0110           0
      9029 MEMB     94       SAPC     H3X      HAL2     0.900000E-01   1.00800           0
      9030 MEMB     94       SAPC     H3Y      HAL2     0.900000E-01   1.00800           0
      9031 MEMB     94       SAPC     C34      CTL2    -0.180000       12.0110           0
      9032 MEMB     94       SAPC     H4X      HAL2     0.900000E-01   1.00800           0
      9033 MEMB     94       SAPC     H4Y      HAL2     0.900000E-01   1.00800           0
      9034 MEMB     94       SAPC     C35      CTL2    -0.180000       12.0110           0
      9035 MEMB     94       SAPC     H5X      HAL2     0.900000E-01   1.00800           0
      9036 MEMB     94       SAPC     H5Y      HAL2     0.900000E-01   1.00800           0
      9037 MEMB     94       SAPC     C36      CTL2    -0.180000       12.0110           0
      9038 MEMB     94       SAPC     H6X      HAL2     0.900000E-01   1.00800           0
      9039 MEMB     94       SAPC     H6Y      HAL2     0.900000E-01   1.00800           0
      9040 MEMB     94       SAPC     C37      CTL2    -0.180000       12.0110           0
      9041 MEMB     94       SAPC     H7X      HAL2     0.900000E-01   1.00800           0
      9042 MEMB     94       SAPC     H7Y      HAL2     0.900000E-01   1.00800           0
      9043 MEMB     94       SAPC     C38      CTL2    -0.180000       12.0110           0
      9044 MEMB     94       SAPC     H8X      HAL2     0.900000E-01   1.00800           0
      9045 MEMB     94       SAPC     H8Y      HAL2     0.900000E-01   1.00800           0
      9046 MEMB     94       SAPC     C39      CTL2    -0.180000       12.0110           0
      9047 MEMB     94       SAPC     H9X      HAL2     0.900000E-01   1.00800           0
      9048 MEMB     94       SAPC     H9Y      HAL2     0.900000E-01   1.00800           0
      9049 MEMB     94       SAPC     C310     CTL2    -0.180000       12.0110           0
      9050 MEMB     94       SAPC     H10X     HAL2     0.900000E-01   1.00800           0
      9051 MEMB     94       SAPC     H10Y     HAL2     0.900000E-01   1.00800           0
      9052 MEMB     94       SAPC     C311     CTL2    -0.180000       12.0110           0
      9053 MEMB     94       SAPC     H11X     HAL2     0.900000E-01   1.00800           0
      9054 MEMB     94       SAPC     H11Y     HAL2     0.900000E-01   1.00800           0
      9055 MEMB     94       SAPC     C312     CTL2    -0.180000       12.0110           0
      9056 MEMB     94       SAPC     H12X     HAL2     0.900000E-01   1.00800           0
      9057 MEMB     94       SAPC     H12Y     HAL2     0.900000E-01   1.00800           0
      9058 MEMB     94       SAPC     C313     CTL2    -0.180000       12.0110           0
      9059 MEMB     94       SAPC     H13X     HAL2     0.900000E-01   1.00800           0
      9060 MEMB     94       SAPC     H13Y     HAL2     0.900000E-01   1.00800           0
      9061 MEMB     94       SAPC     C314     CTL2    -0.180000       12.0110           0
      9062 MEMB     94       SAPC     H14X     HAL2     0.900000E-01   1.00800           0
      9063 MEMB     94       SAPC     H14Y     HAL2     0.900000E-01   1.00800           0
      9064 MEMB     94       SAPC     C315     CTL2    -0.180000       12.0110           0
      9065 MEMB     94       SAPC     H15X     HAL2     0.900000E-01   1.00800           0
      9066 MEMB     94       SAPC     H15Y     HAL2     0.900000E-01   1.00800           0
      9067 MEMB     94       SAPC     C316     CTL2    -0.180000       12.0110           0
      9068 MEMB     94       SAPC     H16X     HAL2     0.900000E-01   1.00800           0
      9069 MEMB     94       SAPC     H16Y     HAL2     0.900000E-01   1.00800           0
      9070 MEMB     94       SAPC     C317     CTL2    -0.180000       12.0110           0
      9071 MEMB     94       SAPC     H17X     HAL2     0.900000E-01   1.00800           0
      9072 MEMB     94       SAPC     H17Y     HAL2     0.900000E-01   1.00800           0
      9073 MEMB     94       SAPC     C318     CTL3    -0.270000       12.0110           0
      9074 MEMB     94       SAPC     H18X     HAL3     0.900000E-01   1.00800           0
      9075 MEMB     94       SAPC     H18Y     HAL3     0.900000E-01   1.00800           0
      9076 MEMB     94       SAPC     H18Z     HAL3     0.900000E-01   1.00800           0
      9077 MEMB     95       SAPC     N        NTL     -0.600000       14.0070           0
      9078 MEMB     95       SAPC     C12      CTL2    -0.100000       12.0110           0
      9079 MEMB     95       SAPC     H12A     HL       0.250000       1.00800           0
      9080 MEMB     95       SAPC     H12B     HL       0.250000       1.00800           0
      9081 MEMB     95       SAPC     C13      CTL5    -0.350000       12.0110           0
      9082 MEMB     95       SAPC     H13A     HL       0.250000       1.00800           0
      9083 MEMB     95       SAPC     H13B     HL       0.250000       1.00800           0
      9084 MEMB     95       SAPC     H13C     HL       0.250000       1.00800           0
      9085 MEMB     95       SAPC     C14      CTL5    -0.350000       12.0110           0
      9086 MEMB     95       SAPC     H14A     HL       0.250000       1.00800           0
      9087 MEMB     95       SAPC     H14B     HL       0.250000       1.00800           0
      9088 MEMB     95       SAPC     H14C     HL       0.250000       1.00800           0
      9089 MEMB     95       SAPC     C15      CTL5    -0.350000       12.0110           0
      9090 MEMB     95       SAPC     H15A     HL       0.250000       1.00800           0
      9091 MEMB     95       SAPC     H15B     HL       0.250000       1.00800           0
      9092 MEMB     95       SAPC     H15C     HL       0.250000       1.00800           0
      9093 MEMB     95       SAPC     C11      CTL2    -0.800000E-01   12.0110           0
      9094 MEMB     95       SAPC     H11A     HAL2     0.900000E-01   1.00800           0
      9095 MEMB     95       SAPC     H11B     HAL2     0.900000E-01   1.00800           0
      9096 MEMB     95       SAPC     P        PL       1.500000       30.9740           0
      9097 MEMB     95       SAPC     O13      O2L     -0.780000       15.9994           0
      9098 MEMB     95       SAPC     O14      O2L     -0.780000       15.9994           0
      9099 MEMB     95       SAPC     O12      OSLP    -0.570000       15.9994           0
      9100 MEMB     95       SAPC     O11      OSLP    -0.570000       15.9994           0
      9101 MEMB     95       SAPC     C1       CTL2    -0.800000E-01   12.0110           0
      9102 MEMB     95       SAPC     HA       HAL2     0.900000E-01   1.00800           0
      9103 MEMB     95       SAPC     HB       HAL2     0.900000E-01   1.00800           0
      9104 MEMB     95       SAPC     C2       CTL1     0.170000       12.0110           0
      9105 MEMB     95       SAPC     HS       HAL1     0.900000E-01   1.00800           0
      9106 MEMB     95       SAPC     O21      OSL     -0.490000       15.9994           0
      9107 MEMB     95       SAPC     C21      CL       0.900000       12.0110           0
      9108 MEMB     95       SAPC     O22      OBL     -0.630000       15.9994           0
      9109 MEMB     95       SAPC     C22      CTL2    -0.220000       12.0110           0
      9110 MEMB     95       SAPC     H2R      HAL2     0.900000E-01   1.00800           0
      9111 MEMB     95       SAPC     H2S      HAL2     0.900000E-01   1.00800           0
      9112 MEMB     95       SAPC     C3       CTL2     0.800000E-01   12.0110           0
      9113 MEMB     95       SAPC     HX       HAL2     0.900000E-01   1.00800           0
      9114 MEMB     95       SAPC     HY       HAL2     0.900000E-01   1.00800           0
      9115 MEMB     95       SAPC     O31      OSL     -0.490000       15.9994           0
      9116 MEMB     95       SAPC     C31      CL       0.900000       12.0110           0
      9117 MEMB     95       SAPC     O32      OBL     -0.630000       15.9994           0
      9118 MEMB     95       SAPC     C32      CTL2    -0.220000       12.0110           0
      9119 MEMB     95       SAPC     H2X      HAL2     0.900000E-01   1.00800           0
      9120 MEMB     95       SAPC     H2Y      HAL2     0.900000E-01   1.00800           0
      9121 MEMB     95       SAPC     C23      CTL2    -0.180000       12.0110           0
      9122 MEMB     95       SAPC     H3R      HAL2     0.900000E-01   1.00800           0
      9123 MEMB     95       SAPC     H3S      HAL2     0.900000E-01   1.00800           0
      9124 MEMB     95       SAPC     C24      CTL2    -0.180000       12.0110           0
      9125 MEMB     95       SAPC     H4R      HAL2     0.900000E-01   1.00800           0
      9126 MEMB     95       SAPC     H4S      HAL2     0.900000E-01   1.00800           0
      9127 MEMB     95       SAPC     C25      CEL1    -0.150000       12.0110           0
      9128 MEMB     95       SAPC     H5R      HEL1     0.150000       1.00800           0
      9129 MEMB     95       SAPC     C26      CEL1    -0.150000       12.0110           0
      9130 MEMB     95       SAPC     H6R      HEL1     0.150000       1.00800           0
      9131 MEMB     95       SAPC     C27      CTL2    -0.180000       12.0110           0
      9132 MEMB     95       SAPC     H7R      HAL2     0.900000E-01   1.00800           0
      9133 MEMB     95       SAPC     H7S      HAL2     0.900000E-01   1.00800           0
      9134 MEMB     95       SAPC     C28      CEL1    -0.150000       12.0110           0
      9135 MEMB     95       SAPC     H8R      HEL1     0.150000       1.00800           0
      9136 MEMB     95       SAPC     C29      CEL1    -0.150000       12.0110           0
      9137 MEMB     95       SAPC     H9R      HEL1     0.150000       1.00800           0
      9138 MEMB     95       SAPC     C210     CTL2    -0.180000       12.0110           0
      9139 MEMB     95       SAPC     H10R     HAL2     0.900000E-01   1.00800           0
      9140 MEMB     95       SAPC     H10S     HAL2     0.900000E-01   1.00800           0
      9141 MEMB     95       SAPC     C211     CEL1    -0.150000       12.0110           0
      9142 MEMB     95       SAPC     H11R     HEL1     0.150000       1.00800           0
      9143 MEMB     95       SAPC     C212     CEL1    -0.150000       12.0110           0
      9144 MEMB     95       SAPC     H12R     HEL1     0.150000       1.00800           0
      9145 MEMB     95       SAPC     C213     CTL2    -0.180000       12.0110           0
      9146 MEMB     95       SAPC     H13R     HAL2     0.900000E-01   1.00800           0
      9147 MEMB     95       SAPC     H13S     HAL2     0.900000E-01   1.00800           0
      9148 MEMB     95       SAPC     C214     CEL1    -0.150000       12.0110           0
      9149 MEMB     95       SAPC     H14R     HEL1     0.150000       1.00800           0
      9150 MEMB     95       SAPC     C215     CEL1    -0.150000       12.0110           0
      9151 MEMB     95       SAPC     H15R     HEL1     0.150000       1.00800           0
      9152 MEMB     95       SAPC     C216     CTL2    -0.180000       12.0110           0
      9153 MEMB     95       SAPC     H16R     HAL2     0.900000E-01   1.00800           0
      9154 MEMB     95       SAPC     H16S     HAL2     0.900000E-01   1.00800           0
      9155 MEMB     95       SAPC     C217     CTL2    -0.180000       12.0110           0
      9156 MEMB     95       SAPC     H17R     HAL2     0.900000E-01   1.00800           0
      9157 MEMB     95       SAPC     H17S     HAL2     0.900000E-01   1.00800           0
      9158 MEMB     95       SAPC     C218     CTL2    -0.270000       12.0110           0
      9159 MEMB     95       SAPC     H18R     HAL2     0.900000E-01   1.00800           0
      9160 MEMB     95       SAPC     H18S     HAL2     0.900000E-01   1.00800           0
      9161 MEMB     95       SAPC     C219     CTL2    -0.180000       12.0110           0
      9162 MEMB     95       SAPC     H19R     HAL2     0.900000E-01   1.00800           0
      9163 MEMB     95       SAPC     H19S     HAL2     0.900000E-01   1.00800           0
      9164 MEMB     95       SAPC     C220     CTL3    -0.180000       12.0110           0
      9165 MEMB     95       SAPC     H20R     HAL3     0.900000E-01   1.00800           0
      9166 MEMB     95       SAPC     H20S     HAL3     0.900000E-01   1.00800           0
      9167 MEMB     95       SAPC     H20T     HAL3     0.900000E-01   1.00800           0
      9168 MEMB     95       SAPC     C33      CTL2    -0.180000       12.0110           0
      9169 MEMB     95       SAPC     H3X      HAL2     0.900000E-01   1.00800           0
      9170 MEMB     95       SAPC     H3Y      HAL2     0.900000E-01   1.00800           0
      9171 MEMB     95       SAPC     C34      CTL2    -0.180000       12.0110           0
      9172 MEMB     95       SAPC     H4X      HAL2     0.900000E-01   1.00800           0
      9173 MEMB     95       SAPC     H4Y      HAL2     0.900000E-01   1.00800           0
      9174 MEMB     95       SAPC     C35      CTL2    -0.180000       12.0110           0
      9175 MEMB     95       SAPC     H5X      HAL2     0.900000E-01   1.00800           0
      9176 MEMB     95       SAPC     H5Y      HAL2     0.900000E-01   1.00800           0
      9177 MEMB     95       SAPC     C36      CTL2    -0.180000       12.0110           0
      9178 MEMB     95       SAPC     H6X      HAL2     0.900000E-01   1.00800           0
      9179 MEMB     95       SAPC     H6Y      HAL2     0.900000E-01   1.00800           0
      9180 MEMB     95       SAPC     C37      CTL2    -0.180000       12.0110           0
      9181 MEMB     95       SAPC     H7X      HAL2     0.900000E-01   1.00800           0
      9182 MEMB     95       SAPC     H7Y      HAL2     0.900000E-01   1.00800           0
      9183 MEMB     95       SAPC     C38      CTL2    -0.180000       12.0110           0
      9184 MEMB     95       SAPC     H8X      HAL2     0.900000E-01   1.00800           0
      9185 MEMB     95       SAPC     H8Y      HAL2     0.900000E-01   1.00800           0
      9186 MEMB     95       SAPC     C39      CTL2    -0.180000       12.0110           0
      9187 MEMB     95       SAPC     H9X      HAL2     0.900000E-01   1.00800           0
      9188 MEMB     95       SAPC     H9Y      HAL2     0.900000E-01   1.00800           0
      9189 MEMB     95       SAPC     C310     CTL2    -0.180000       12.0110           0
      9190 MEMB     95       SAPC     H10X     HAL2     0.900000E-01   1.00800           0
      9191 MEMB     95       SAPC     H10Y     HAL2     0.900000E-01   1.00800           0
      9192 MEMB     95       SAPC     C311     CTL2    -0.180000       12.0110           0
      9193 MEMB     95       SAPC     H11X     HAL2     0.900000E-01   1.00800           0
      9194 MEMB     95       SAPC     H11Y     HAL2     0.900000E-01   1.00800           0
      9195 MEMB     95       SAPC     C312     CTL2    -0.180000       12.0110           0
      9196 MEMB     95       SAPC     H12X     HAL2     0.900000E-01   1.00800           0
      9197 MEMB     95       SAPC     H12Y     HAL2     0.900000E-01   1.00800           0
      9198 MEMB     95       SAPC     C313     CTL2    -0.180000       12.0110           0
      9199 MEMB     95       SAPC     H13X     HAL2     0.900000E-01   1.00800           0
      9200 MEMB     95       SAPC     H13Y     HAL2     0.900000E-01   1.00800           0
      9201 MEMB     95       SAPC     C314     CTL2    -0.180000       12.0110           0
      9202 MEMB     95       SAPC     H14X     HAL2     0.900000E-01   1.00800           0
      9203 MEMB     95       SAPC     H14Y     HAL2     0.900000E-01   1.00800           0
      9204 MEMB     95       SAPC     C315     CTL2    -0.180000       12.0110           0
      9205 MEMB     95       SAPC     H15X     HAL2     0.900000E-01   1.00800           0
      9206 MEMB     95       SAPC     H15Y     HAL2     0.900000E-01   1.00800           0
      9207 MEMB     95       SAPC     C316     CTL2    -0.180000       12.0110           0
      9208 MEMB     95       SAPC     H16X     HAL2     0.900000E-01   1.00800           0
      9209 MEMB     95       SAPC     H16Y     HAL2     0.900000E-01   1.00800           0
      9210 MEMB     95       SAPC     C317     CTL2    -0.180000       12.0110           0
      9211 MEMB     95       SAPC     H17X     HAL2     0.900000E-01   1.00800           0
      9212 MEMB     95       SAPC     H17Y     HAL2     0.900000E-01   1.00800           0
      9213 MEMB     95       SAPC     C318     CTL3    -0.270000       12.0110           0
      9214 MEMB     95       SAPC     H18X     HAL3     0.900000E-01   1.00800           0
      9215 MEMB     95       SAPC     H18Y     HAL3     0.900000E-01   1.00800           0
      9216 MEMB     95       SAPC     H18Z     HAL3     0.900000E-01   1.00800           0
      9217 MEMB     109      SAPC     N        NTL     -0.600000       14.0070           0
      9218 MEMB     109      SAPC     C12      CTL2    -0.100000       12.0110           0
      9219 MEMB     109      SAPC     H12A     HL       0.250000       1.00800           0
      9220 MEMB     109      SAPC     H12B     HL       0.250000       1.00800           0
      9221 MEMB     109      SAPC     C13      CTL5    -0.350000       12.0110           0
      9222 MEMB     109      SAPC     H13A     HL       0.250000       1.00800           0
      9223 MEMB     109      SAPC     H13B     HL       0.250000       1.00800           0
      9224 MEMB     109      SAPC     H13C     HL       0.250000       1.00800           0
      9225 MEMB     109      SAPC     C14      CTL5    -0.350000       12.0110           0
      9226 MEMB     109      SAPC     H14A     HL       0.250000       1.00800           0
      9227 MEMB     109      SAPC     H14B     HL       0.250000       1.00800           0
      9228 MEMB     109      SAPC     H14C     HL       0.250000       1.00800           0
      9229 MEMB     109      SAPC     C15      CTL5    -0.350000       12.0110           0
      9230 MEMB     109      SAPC     H15A     HL       0.250000       1.00800           0
      9231 MEMB     109      SAPC     H15B     HL       0.250000       1.00800           0
      9232 MEMB     109      SAPC     H15C     HL       0.250000       1.00800           0
      9233 MEMB     109      SAPC     C11      CTL2    -0.800000E-01   12.0110           0
      9234 MEMB     109      SAPC     H11A     HAL2     0.900000E-01   1.00800           0
      9235 MEMB     109      SAPC     H11B     HAL2     0.900000E-01   1.00800           0
      9236 MEMB     109      SAPC     P        PL       1.500000       30.9740           0
      9237 MEMB     109      SAPC     O13      O2L     -0.780000       15.9994           0
      9238 MEMB     109      SAPC     O14      O2L     -0.780000       15.9994           0
      9239 MEMB     109      SAPC     O12      OSLP    -0.570000       15.9994           0
      9240 MEMB     109      SAPC     O11      OSLP    -0.570000       15.9994           0
      9241 MEMB     109      SAPC     C1       CTL2    -0.800000E-01   12.0110           0
      9242 MEMB     109      SAPC     HA       HAL2     0.900000E-01   1.00800           0
      9243 MEMB     109      SAPC     HB       HAL2     0.900000E-01   1.00800           0
      9244 MEMB     109      SAPC     C2       CTL1     0.170000       12.0110           0
      9245 MEMB     109      SAPC     HS       HAL1     0.900000E-01   1.00800           0
      9246 MEMB     109      SAPC     O21      OSL     -0.490000       15.9994           0
      9247 MEMB     109      SAPC     C21      CL       0.900000       12.0110           0
      9248 MEMB     109      SAPC     O22      OBL     -0.630000       15.9994           0
      9249 MEMB     109      SAPC     C22      CTL2    -0.220000       12.0110           0
      9250 MEMB     109      SAPC     H2R      HAL2     0.900000E-01   1.00800           0
      9251 MEMB     109      SAPC     H2S      HAL2     0.900000E-01   1.00800           0
      9252 MEMB     109      SAPC     C3       CTL2     0.800000E-01   12.0110           0
      9253 MEMB     109      SAPC     HX       HAL2     0.900000E-01   1.00800           0
      9254 MEMB     109      SAPC     HY       HAL2     0.900000E-01   1.00800           0
      9255 MEMB     109      SAPC     O31      OSL     -0.490000       15.9994           0
      9256 MEMB     109      SAPC     C31      CL       0.900000       12.0110           0
      9257 MEMB     109      SAPC     O32      OBL     -0.630000       15.9994           0
      9258 MEMB     109      SAPC     C32      CTL2    -0.220000       12.0110           0
      9259 MEMB     109      SAPC     H2X      HAL2     0.900000E-01   1.00800           0
      9260 MEMB     109      SAPC     H2Y      HAL2     0.900000E-01   1.00800           0
      9261 MEMB     109      SAPC     C23      CTL2    -0.180000       12.0110           0
      9262 MEMB     109      SAPC     H3R      HAL2     0.900000E-01   1.00800           0
      9263 MEMB     109      SAPC     H3S      HAL2     0.900000E-01   1.00800           0
      9264 MEMB     109      SAPC     C24      CTL2    -0.180000       12.0110           0
      9265 MEMB     109      SAPC     H4R      HAL2     0.900000E-01   1.00800           0
      9266 MEMB     109      SAPC     H4S      HAL2     0.900000E-01   1.00800           0
      9267 MEMB     109      SAPC     C25      CEL1    -0.150000       12.0110           0
      9268 MEMB     109      SAPC     H5R      HEL1     0.150000       1.00800           0
      9269 MEMB     109      SAPC     C26      CEL1    -0.150000       12.0110           0
      9270 MEMB     109      SAPC     H6R      HEL1     0.150000       1.00800           0
      9271 MEMB     109      SAPC     C27      CTL2    -0.180000       12.0110           0
      9272 MEMB     109      SAPC     H7R      HAL2     0.900000E-01   1.00800           0
      9273 MEMB     109      SAPC     H7S      HAL2     0.900000E-01   1.00800           0
      9274 MEMB     109      SAPC     C28      CEL1    -0.150000       12.0110           0
      9275 MEMB     109      SAPC     H8R      HEL1     0.150000       1.00800           0
      9276 MEMB     109      SAPC     C29      CEL1    -0.150000       12.0110           0
      9277 MEMB     109      SAPC     H9R      HEL1     0.150000       1.00800           0
      9278 MEMB     109      SAPC     C210     CTL2    -0.180000       12.0110           0
      9279 MEMB     109      SAPC     H10R     HAL2     0.900000E-01   1.00800           0
      9280 MEMB     109      SAPC     H10S     HAL2     0.900000E-01   1.00800           0
      9281 MEMB     109      SAPC     C211     CEL1    -0.150000       12.0110           0
      9282 MEMB     109      SAPC     H11R     HEL1     0.150000       1.00800           0
      9283 MEMB     109      SAPC     C212     CEL1    -0.150000       12.0110           0
      9284 MEMB     109      SAPC     H12R     HEL1     0.150000       1.00800           0
      9285 MEMB     109      SAPC     C213     CTL2    -0.180000       12.0110           0
      9286 MEMB     109      SAPC     H13R     HAL2     0.900000E-01   1.00800           0
      9287 MEMB     109      SAPC     H13S     HAL2     0.900000E-01   1.00800           0
      9288 MEMB     109      SAPC     C214     CEL1    -0.150000       12.0110           0
      9289 MEMB     109      SAPC     H14R     HEL1     0.150000       1.00800           0
      9290 MEMB     109      SAPC     C215     CEL1    -0.150000       12.0110           0
      9291 MEMB     109      SAPC     H15R     HEL1     0.150000       1.00800           0
      9292 MEMB     109      SAPC     C216     CTL2    -0.180000       12.0110           0
      9293 MEMB     109      SAPC     H16R     HAL2     0.900000E-01   1.00800           0
      9294 MEMB     109      SAPC     H16S     HAL2     0.900000E-01   1.00800           0
      9295 MEMB     109      SAPC     C217     CTL2    -0.180000       12.0110           0
      9296 MEMB     109      SAPC     H17R     HAL2     0.900000E-01   1.00800           0
      9297 MEMB     109      SAPC     H17S     HAL2     0.900000E-01   1.00800           0
      9298 MEMB     109      SAPC     C218     CTL2    -0.270000       12.0110           0
      9299 MEMB     109      SAPC     H18R     HAL2     0.900000E-01   1.00800           0
      9300 MEMB     109      SAPC     H18S     HAL2     0.900000E-01   1.00800           0
      9301 MEMB     109      SAPC     C219     CTL2    -0.180000       12.0110           0
      9302 MEMB     109      SAPC     H19R     HAL2     0.900000E-01   1.00800           0
      9303 MEMB     109      SAPC     H19S     HAL2     0.900000E-01   1.00800           0
      9304 MEMB     109      SAPC     C220     CTL3    -0.180000       12.0110           0
      9305 MEMB     109      SAPC     H20R     HAL3     0.900000E-01   1.00800           0
      9306 MEMB     109      SAPC     H20S     HAL3     0.900000E-01   1.00800           0
      9307 MEMB     109      SAPC     H20T     HAL3     0.900000E-01   1.00800           0
      9308 MEMB     109      SAPC     C33      CTL2    -0.180000       12.0110           0
      9309 MEMB     109      SAPC     H3X      HAL2     0.900000E-01   1.00800           0
      9310 MEMB     109      SAPC     H3Y      HAL2     0.900000E-01   1.00800           0
      9311 MEMB     109      SAPC     C34      CTL2    -0.180000       12.0110           0
      9312 MEMB     109      SAPC     H4X      HAL2     0.900000E-01   1.00800           0
      9313 MEMB     109      SAPC     H4Y      HAL2     0.900000E-01   1.00800           0
      9314 MEMB     109      SAPC     C35      CTL2    -0.180000       12.0110           0
      9315 MEMB     109      SAPC     H5X      HAL2     0.900000E-01   1.00800           0
      9316 MEMB     109      SAPC     H5Y      HAL2     0.900000E-01   1.00800           0
      9317 MEMB     109      SAPC     C36      CTL2    -0.180000       12.0110           0
      9318 MEMB     109      SAPC     H6X      HAL2     0.900000E-01   1.00800           0
      9319 MEMB     109      SAPC     H6Y      HAL2     0.900000E-01   1.00800           0
      9320 MEMB     109      SAPC     C37      CTL2    -0.180000       12.0110           0
      9321 MEMB     109      SAPC     H7X      HAL2     0.900000E-01   1.00800           0
      9322 MEMB     109      SAPC     H7Y      HAL2     0.900000E-01   1.00800           0
      9323 MEMB     109      SAPC     C38      CTL2    -0.180000       12.0110           0
      9324 MEMB     109      SAPC     H8X      HAL2     0.900000E-01   1.00800           0
      9325 MEMB     109      SAPC     H8Y      HAL2     0.900000E-01   1.00800           0
      9326 MEMB     109      SAPC     C39      CTL2    -0.180000       12.0110           0
      9327 MEMB     109      SAPC     H9X      HAL2     0.900000E-01   1.00800           0
      9328 MEMB     109      SAPC     H9Y      HAL2     0.900000E-01   1.00800           0
      9329 MEMB     109      SAPC     C310     CTL2    -0.180000       12.0110           0
      9330 MEMB     109      SAPC     H10X     HAL2     0.900000E-01   1.00800           0
      9331 MEMB     109      SAPC     H10Y     HAL2     0.900000E-01   1.00800           0
      9332 MEMB     109      SAPC     C311     CTL2    -0.180000       12.0110           0
      9333 MEMB     109      SAPC     H11X     HAL2     0.900000E-01   1.00800           0
      9334 MEMB     109      SAPC     H11Y     HAL2     0.900000E-01   1.00800           0
      9335 MEMB     109      SAPC     C312     CTL2    -0.180000       12.0110           0
      9336 MEMB     109      SAPC     H12X     HAL2     0.900000E-01   1.00800           0
      9337 MEMB     109      SAPC     H12Y     HAL2     0.900000E-01   1.00800           0
      9338 MEMB     109      SAPC     C313     CTL2    -0.180000       12.0110           0
      9339 MEMB     109      SAPC     H13X     HAL2     0.900000E-01   1.00800           0
      9340 MEMB     109      SAPC     H13Y     HAL2     0.900000E-01   1.00800           0
      9341 MEMB     109      SAPC     C314     CTL2    -0.180000       12.0110           0
      9342 MEMB     109      SAPC     H14X     HAL2     0.900000E-01   1.00800           0
      9343 MEMB     109      SAPC     H14Y     HAL2     0.900000E-01   1.00800           0
      9344 MEMB     109      SAPC     C315     CTL2    -0.180000       12.0110           0
      9345 MEMB     109      SAPC     H15X     HAL2     0.900000E-01   1.00800           0
      9346 MEMB     109      SAPC     H15Y     HAL2     0.900000E-01   1.00800           0
      9347 MEMB     109      SAPC     C316     CTL2    -0.180000       12.0110           0
      9348 MEMB     109      SAPC     H16X     HAL2     0.900000E-01   1.00800           0
      9349 MEMB     109      SAPC     H16Y     HAL2     0.900000E-01   1.00800           0
      9350 MEMB     109      SAPC     C317     CTL2    -0.180000       12.0110           0
      9351 MEMB     109      SAPC     H17X     HAL2     0.900000E-01   1.00800           0
      9352 MEMB     109      SAPC     H17Y     HAL2     0.900000E-01   1.00800           0
      9353 MEMB     109      SAPC     C318     CTL3    -0.270000       12.0110           0
      9354 MEMB     109      SAPC     H18X     HAL3     0.900000E-01   1.00800           0
      9355 MEMB     109      SAPC     H18Y     HAL3     0.900000E-01   1.00800           0
      9356 MEMB     109      SAPC     H18Z     HAL3     0.900000E-01   1.00800           0
      9357 MEMB     113      SAPC     N        NTL     -0.600000       14.0070           0
      9358 MEMB     113      SAPC     C12      CTL2    -0.100000       12.0110           0
      9359 MEMB     113      SAPC     H12A     HL       0.250000       1.00800           0
      9360 MEMB     113      SAPC     H12B     HL       0.250000       1.00800           0
      9361 MEMB     113      SAPC     C13      CTL5    -0.350000       12.0110           0
      9362 MEMB     113      SAPC     H13A     HL       0.250000       1.00800           0
      9363 MEMB     113      SAPC     H13B     HL       0.250000       1.00800           0
      9364 MEMB     113      SAPC     H13C     HL       0.250000       1.00800           0
      9365 MEMB     113      SAPC     C14      CTL5    -0.350000       12.0110           0
      9366 MEMB     113      SAPC     H14A     HL       0.250000       1.00800           0
      9367 MEMB     113      SAPC     H14B     HL       0.250000       1.00800           0
      9368 MEMB     113      SAPC     H14C     HL       0.250000       1.00800           0
      9369 MEMB     113      SAPC     C15      CTL5    -0.350000       12.0110           0
      9370 MEMB     113      SAPC     H15A     HL       0.250000       1.00800           0
      9371 MEMB     113      SAPC     H15B     HL       0.250000       1.00800           0
      9372 MEMB     113      SAPC     H15C     HL       0.250000       1.00800           0
      9373 MEMB     113      SAPC     C11      CTL2    -0.800000E-01   12.0110           0
      9374 MEMB     113      SAPC     H11A     HAL2     0.900000E-01   1.00800           0
      9375 MEMB     113      SAPC     H11B     HAL2     0.900000E-01   1.00800           0
      9376 MEMB     113      SAPC     P        PL       1.500000       30.9740           0
      9377 MEMB     113      SAPC     O13      O2L     -0.780000       15.9994           0
      9378 MEMB     113      SAPC     O14      O2L     -0.780000       15.9994           0
      9379 MEMB     113      SAPC     O12      OSLP    -0.570000       15.9994           0
      9380 MEMB     113      SAPC     O11      OSLP    -0.570000       15.9994           0
      9381 MEMB     113      SAPC     C1       CTL2    -0.800000E-01   12.0110           0
      9382 MEMB     113      SAPC     HA       HAL2     0.900000E-01   1.00800           0
      9383 MEMB     113      SAPC     HB       HAL2     0.900000E-01   1.00800           0
      9384 MEMB     113      SAPC     C2       CTL1     0.170000       12.0110           0
      9385 MEMB     113      SAPC     HS       HAL1     0.900000E-01   1.00800           0
      9386 MEMB     113      SAPC     O21      OSL     -0.490000       15.9994           0
      9387 MEMB     113      SAPC     C21      CL       0.900000       12.0110           0
      9388 MEMB     113      SAPC     O22      OBL     -0.630000       15.9994           0
      9389 MEMB     113      SAPC     C22      CTL2    -0.220000       12.0110           0
      9390 MEMB     113      SAPC     H2R      HAL2     0.900000E-01   1.00800           0
      9391 MEMB     113      SAPC     H2S      HAL2     0.900000E-01   1.00800           0
      9392 MEMB     113      SAPC     C3       CTL2     0.800000E-01   12.0110           0
      9393 MEMB     113      SAPC     HX       HAL2     0.900000E-01   1.00800           0
      9394 MEMB     113      SAPC     HY       HAL2     0.900000E-01   1.00800           0
      9395 MEMB     113      SAPC     O31      OSL     -0.490000       15.9994           0
      9396 MEMB     113      SAPC     C31      CL       0.900000       12.0110           0
      9397 MEMB     113      SAPC     O32      OBL     -0.630000       15.9994           0
      9398 MEMB     113      SAPC     C32      CTL2    -0.220000       12.0110           0
      9399 MEMB     113      SAPC     H2X      HAL2     0.900000E-01   1.00800           0
      9400 MEMB     113      SAPC     H2Y      HAL2     0.900000E-01   1.00800           0
      9401 MEMB     113      SAPC     C23      CTL2    -0.180000       12.0110           0
      9402 MEMB     113      SAPC     H3R      HAL2     0.900000E-01   1.00800           0
      9403 MEMB     113      SAPC     H3S      HAL2     0.900000E-01   1.00800           0
      9404 MEMB     113      SAPC     C24      CTL2    -0.180000       12.0110           0
      9405 MEMB     113      SAPC     H4R      HAL2     0.900000E-01   1.00800           0
      9406 MEMB     113      SAPC     H4S      HAL2     0.900000E-01   1.00800           0
      9407 MEMB     113      SAPC     C25      CEL1    -0.150000       12.0110           0
      9408 MEMB     113      SAPC     H5R      HEL1     0.150000       1.00800           0
      9409 MEMB     113      SAPC     C26      CEL1    -0.150000       12.0110           0
      9410 MEMB     113      SAPC     H6R      HEL1     0.150000       1.00800           0
      9411 MEMB     113      SAPC     C27      CTL2    -0.180000       12.0110           0
      9412 MEMB     113      SAPC     H7R      HAL2     0.900000E-01   1.00800           0
      9413 MEMB     113      SAPC     H7S      HAL2     0.900000E-01   1.00800           0
      9414 MEMB     113      SAPC     C28      CEL1    -0.150000       12.0110           0
      9415 MEMB     113      SAPC     H8R      HEL1     0.150000       1.00800           0
      9416 MEMB     113      SAPC     C29      CEL1    -0.150000       12.0110           0
      9417 MEMB     113      SAPC     H9R      HEL1     0.150000       1.00800           0
      9418 MEMB     113      SAPC     C210     CTL2    -0.180000       12.0110           0
      9419 MEMB     113      SAPC     H10R     HAL2     0.900000E-01   1.00800           0
      9420 MEMB     113      SAPC     H10S     HAL2     0.900000E-01   1.00800           0
      9421 MEMB     113      SAPC     C211     CEL1    -0.150000       12.0110           0
      9422 MEMB     113      SAPC     H11R     HEL1     0.150000       1.00800           0
      9423 MEMB     113      SAPC     C212     CEL1    -0.150000       12.0110           0
      9424 MEMB     113      SAPC     H12R     HEL1     0.150000       1.00800           0
      9425 MEMB     113      SAPC     C213     CTL2    -0.180000       12.0110           0
      9426 MEMB     113      SAPC     H13R     HAL2     0.900000E-01   1.00800           0
      9427 MEMB     113      SAPC     H13S     HAL2     0.900000E-01   1.00800           0
      9428 MEMB     113      SAPC     C214     CEL1    -0.150000       12.0110           0
      9429 MEMB     113      SAPC     H14R     HEL1     0.150000       1.00800           0
      9430 MEMB     113      SAPC     C215     CEL1    -0.150000       12.0110           0
      9431 MEMB     113      SAPC     H15R     HEL1     0.150000       1.00800           0
      9432 MEMB     113      SAPC     C216     CTL2    -0.180000       12.0110           0
      9433 MEMB     113      SAPC     H16R     HAL2     0.900000E-01   1.00800           0
      9434 MEMB     113      SAPC     H16S     HAL2     0.900000E-01   1.00800           0
      9435 MEMB     113      SAPC     C217     CTL2    -0.180000       12.0110           0
      9436 MEMB     113      SAPC     H17R     HAL2     0.900000E-01   1.00800           0
      9437 MEMB     113      SAPC     H17S     HAL2     0.900000E-01   1.00800           0
      9438 MEMB     113      SAPC     C218     CTL2    -0.270000       12.0110           0
      9439 MEMB     113      SAPC     H18R     HAL2     0.900000E-01   1.00800           0
      9440 MEMB     113      SAPC     H18S     HAL2     0.900000E-01   1.00800           0
      9441 MEMB     113      SAPC     C219     CTL2    -0.180000       12.0110           0
      9442 MEMB     113      SAPC     H19R     HAL2     0.900000E-01   1.00800           0
      9443 MEMB     113      SAPC     H19S     HAL2     0.900000E-01   1.00800           0
      9444 MEMB     113      SAPC     C220     CTL3    -0.180000       12.0110           0
      9445 MEMB     113      SAPC     H20R     HAL3     0.900000E-01   1.00800           0
      9446 MEMB     113      SAPC     H20S     HAL3     0.900000E-01   1.00800           0
      9447 MEMB     113      SAPC     H20T     HAL3     0.900000E-01   1.00800           0
      9448 MEMB     113      SAPC     C33      CTL2    -0.180000       12.0110           0
      9449 MEMB     113      SAPC     H3X      HAL2     0.900000E-01   1.00800           0
      9450 MEMB     113      SAPC     H3Y      HAL2     0.900000E-01   1.00800           0
      9451 MEMB     113      SAPC     C34      CTL2    -0.180000       12.0110           0
      9452 MEMB     113      SAPC     H4X      HAL2     0.900000E-01   1.00800           0
      9453 MEMB     113      SAPC     H4Y      HAL2     0.900000E-01   1.00800           0
      9454 MEMB     113      SAPC     C35      CTL2    -0.180000       12.0110           0
      9455 MEMB     113      SAPC     H5X      HAL2     0.900000E-01   1.00800           0
      9456 MEMB     113      SAPC     H5Y      HAL2     0.900000E-01   1.00800           0
      9457 MEMB     113      SAPC     C36      CTL2    -0.180000       12.0110           0
      9458 MEMB     113      SAPC     H6X      HAL2     0.900000E-01   1.00800           0
      9459 MEMB     113      SAPC     H6Y      HAL2     0.900000E-01   1.00800           0
      9460 MEMB     113      SAPC     C37      CTL2    -0.180000       12.0110           0
      9461 MEMB     113      SAPC     H7X      HAL2     0.900000E-01   1.00800           0
      9462 MEMB     113      SAPC     H7Y      HAL2     0.900000E-01   1.00800           0
      9463 MEMB     113      SAPC     C38      CTL2    -0.180000       12.0110           0
      9464 MEMB     113      SAPC     H8X      HAL2     0.900000E-01   1.00800           0
      9465 MEMB     113      SAPC     H8Y      HAL2     0.900000E-01   1.00800           0
      9466 MEMB     113      SAPC     C39      CTL2    -0.180000       12.0110           0
      9467 MEMB     113      SAPC     H9X      HAL2     0.900000E-01   1.00800           0
      9468 MEMB     113      SAPC     H9Y      HAL2     0.900000E-01   1.00800           0
      9469 MEMB     113      SAPC     C310     CTL2    -0.180000       12.0110           0
      9470 MEMB     113      SAPC     H10X     HAL2     0.900000E-01   1.00800           0
      9471 MEMB     113      SAPC     H10Y     HAL2     0.900000E-01   1.00800           0
      9472 MEMB     113      SAPC     C311     CTL2    -0.180000       12.0110           0
      9473 MEMB     113      SAPC     H11X     HAL2     0.900000E-01   1.00800           0
      9474 MEMB     113      SAPC     H11Y     HAL2     0.900000E-01   1.00800           0
      9475 MEMB     113      SAPC     C312     CTL2    -0.180000       12.0110           0
      9476 MEMB     113      SAPC     H12X     HAL2     0.900000E-01   1.00800           0
      9477 MEMB     113      SAPC     H12Y     HAL2     0.900000E-01   1.00800           0
      9478 MEMB     113      SAPC     C313     CTL2    -0.180000       12.0110           0
      9479 MEMB     113      SAPC     H13X     HAL2     0.900000E-01   1.00800           0
      9480 MEMB     113      SAPC     H13Y     HAL2     0.900000E-01   1.00800           0
      9481 MEMB     113      SAPC     C314     CTL2    -0.180000       12.0110           0
      9482 MEMB     113      SAPC     H14X     HAL2     0.900000E-01   1.00800           0
      9483 MEMB     113      SAPC     H14Y     HAL2     0.900000E-01   1.00800           0
      9484 MEMB     113      SAPC     C315     CTL2    -0.180000       12.0110           0
      9485 MEMB     113      SAPC     H15X     HAL2     0.900000E-01   1.00800           0
      9486 MEMB     113      SAPC     H15Y     HAL2     0.900000E-01   1.00800           0
      9487 MEMB     113      SAPC     C316     CTL2    -0.180000       12.0110           0
      9488 MEMB     113      SAPC     H16X     HAL2     0.900000E-01   1.00800           0
      9489 MEMB     113      SAPC     H16Y     HAL2     0.900000E-01   1.00800           0
      9490 MEMB     113      SAPC     C317     CTL2    -0.180000       12.0110           0
      9491 MEMB     113      SAPC     H17X     HAL2     0.900000E-01   1.00800           0
      9492 MEMB     113      SAPC     H17Y     HAL2     0.900000E-01   1.00800           0
      9493 MEMB     113      SAPC     C318     CTL3    -0.270000       12.0110           0
      9494 MEMB     113      SAPC     H18X     HAL3     0.900000E-01   1.00800           0
      9495 MEMB     113      SAPC     H18Y     HAL3     0.900000E-01   1.00800           0
      9496 MEMB     113      SAPC     H18Z     HAL3     0.900000E-01   1.00800           0
      9497 MEMB     124      SAPC     N        NTL     -0.600000       14.0070           0
      9498 MEMB     124      SAPC     C12      CTL2    -0.100000       12.0110           0
      9499 MEMB     124      SAPC     H12A     HL       0.250000       1.00800           0
      9500 MEMB     124      SAPC     H12B     HL       0.250000       1.00800           0
      9501 MEMB     124      SAPC     C13      CTL5    -0.350000       12.0110           0
      9502 MEMB     124      SAPC     H13A     HL       0.250000       1.00800           0
      9503 MEMB     124      SAPC     H13B     HL       0.250000       1.00800           0
      9504 MEMB     124      SAPC     H13C     HL       0.250000       1.00800           0
      9505 MEMB     124      SAPC     C14      CTL5    -0.350000       12.0110           0
      9506 MEMB     124      SAPC     H14A     HL       0.250000       1.00800           0
      9507 MEMB     124      SAPC     H14B     HL       0.250000       1.00800           0
      9508 MEMB     124      SAPC     H14C     HL       0.250000       1.00800           0
      9509 MEMB     124      SAPC     C15      CTL5    -0.350000       12.0110           0
      9510 MEMB     124      SAPC     H15A     HL       0.250000       1.00800           0
      9511 MEMB     124      SAPC     H15B     HL       0.250000       1.00800           0
      9512 MEMB     124      SAPC     H15C     HL       0.250000       1.00800           0
      9513 MEMB     124      SAPC     C11      CTL2    -0.800000E-01   12.0110           0
      9514 MEMB     124      SAPC     H11A     HAL2     0.900000E-01   1.00800           0
      9515 MEMB     124      SAPC     H11B     HAL2     0.900000E-01   1.00800           0
      9516 MEMB     124      SAPC     P        PL       1.500000       30.9740           0
      9517 MEMB     124      SAPC     O13      O2L     -0.780000       15.9994           0
      9518 MEMB     124      SAPC     O14      O2L     -0.780000       15.9994           0
      9519 MEMB     124      SAPC     O12      OSLP    -0.570000       15.9994           0
      9520 MEMB     124      SAPC     O11      OSLP    -0.570000       15.9994           0
      9521 MEMB     124      SAPC     C1       CTL2    -0.800000E-01   12.0110           0
      9522 MEMB     124      SAPC     HA       HAL2     0.900000E-01   1.00800           0
      9523 MEMB     124      SAPC     HB       HAL2     0.900000E-01   1.00800           0
      9524 MEMB     124      SAPC     C2       CTL1     0.170000       12.0110           0
      9525 MEMB     124      SAPC     HS       HAL1     0.900000E-01   1.00800           0
      9526 MEMB     124      SAPC     O21      OSL     -0.490000       15.9994           0
      9527 MEMB     124      SAPC     C21      CL       0.900000       12.0110           0
      9528 MEMB     124      SAPC     O22      OBL     -0.630000       15.9994           0
      9529 MEMB     124      SAPC     C22      CTL2    -0.220000       12.0110           0
      9530 MEMB     124      SAPC     H2R      HAL2     0.900000E-01   1.00800           0
      9531 MEMB     124      SAPC     H2S      HAL2     0.900000E-01   1.00800           0
      9532 MEMB     124      SAPC     C3       CTL2     0.800000E-01   12.0110           0
      9533 MEMB     124      SAPC     HX       HAL2     0.900000E-01   1.00800           0
      9534 MEMB     124      SAPC     HY       HAL2     0.900000E-01   1.00800           0
      9535 MEMB     124      SAPC     O31      OSL     -0.490000       15.9994           0
      9536 MEMB     124      SAPC     C31      CL       0.900000       12.0110           0
      9537 MEMB     124      SAPC     O32      OBL     -0.630000       15.9994           0
      9538 MEMB     124      SAPC     C32      CTL2    -0.220000       12.0110           0
      9539 MEMB     124      SAPC     H2X      HAL2     0.900000E-01   1.00800           0
      9540 MEMB     124      SAPC     H2Y      HAL2     0.900000E-01   1.00800           0
      9541 MEMB     124      SAPC     C23      CTL2    -0.180000       12.0110           0
      9542 MEMB     124      SAPC     H3R      HAL2     0.900000E-01   1.00800           0
      9543 MEMB     124      SAPC     H3S      HAL2     0.900000E-01   1.00800           0
      9544 MEMB     124      SAPC     C24      CTL2    -0.180000       12.0110           0
      9545 MEMB     124      SAPC     H4R      HAL2     0.900000E-01   1.00800           0
      9546 MEMB     124      SAPC     H4S      HAL2     0.900000E-01   1.00800           0
      9547 MEMB     124      SAPC     C25      CEL1    -0.150000       12.0110           0
      9548 MEMB     124      SAPC     H5R      HEL1     0.150000       1.00800           0
      9549 MEMB     124      SAPC     C26      CEL1    -0.150000       12.0110           0
      9550 MEMB     124      SAPC     H6R      HEL1     0.150000       1.00800           0
      9551 MEMB     124      SAPC     C27      CTL2    -0.180000       12.0110           0
      9552 MEMB     124      SAPC     H7R      HAL2     0.900000E-01   1.00800           0
      9553 MEMB     124      SAPC     H7S      HAL2     0.900000E-01   1.00800           0
      9554 MEMB     124      SAPC     C28      CEL1    -0.150000       12.0110           0
      9555 MEMB     124      SAPC     H8R      HEL1     0.150000       1.00800           0
      9556 MEMB     124      SAPC     C29      CEL1    -0.150000       12.0110           0
      9557 MEMB     124      SAPC     H9R      HEL1     0.150000       1.00800           0
      9558 MEMB     124      SAPC     C210     CTL2    -0.180000       12.0110           0
      9559 MEMB     124      SAPC     H10R     HAL2     0.900000E-01   1.00800           0
      9560 MEMB     124      SAPC     H10S     HAL2     0.900000E-01   1.00800           0
      9561 MEMB     124      SAPC     C211     CEL1    -0.150000       12.0110           0
      9562 MEMB     124      SAPC     H11R     HEL1     0.150000       1.00800           0
      9563 MEMB     124      SAPC     C212     CEL1    -0.150000       12.0110           0
      9564 MEMB     124      SAPC     H12R     HEL1     0.150000       1.00800           0
      9565 MEMB     124      SAPC     C213     CTL2    -0.180000       12.0110           0
      9566 MEMB     124      SAPC     H13R     HAL2     0.900000E-01   1.00800           0
      9567 MEMB     124      SAPC     H13S     HAL2     0.900000E-01   1.00800           0
      9568 MEMB     124      SAPC     C214     CEL1    -0.150000       12.0110           0
      9569 MEMB     124      SAPC     H14R     HEL1     0.150000       1.00800           0
      9570 MEMB     124      SAPC     C215     CEL1    -0.150000       12.0110           0
      9571 MEMB     124      SAPC     H15R     HEL1     0.150000       1.00800           0
      9572 MEMB     124      SAPC     C216     CTL2    -0.180000       12.0110           0
      9573 MEMB     124      SAPC     H16R     HAL2     0.900000E-01   1.00800           0
      9574 MEMB     124      SAPC     H16S     HAL2     0.900000E-01   1.00800           0
      9575 MEMB     124      SAPC     C217     CTL2    -0.180000       12.0110           0
      9576 MEMB     124      SAPC     H17R     HAL2     0.900000E-01   1.00800           0
      9577 MEMB     124      SAPC     H17S     HAL2     0.900000E-01   1.00800           0
      9578 MEMB     124      SAPC     C218     CTL2    -0.270000       12.0110           0
      9579 MEMB     124      SAPC     H18R     HAL2     0.900000E-01   1.00800           0
      9580 MEMB     124      SAPC     H18S     HAL2     0.900000E-01   1.00800           0
      9581 MEMB     124      SAPC     C219     CTL2    -0.180000       12.0110           0
      9582 MEMB     124      SAPC     H19R     HAL2     0.900000E-01   1.00800           0
      9583 MEMB     124      SAPC     H19S     HAL2     0.900000E-01   1.00800           0
      9584 MEMB     124      SAPC     C220     CTL3    -0.180000       12.0110           0
      9585 MEMB     124      SAPC     H20R     HAL3     0.900000E-01   1.00800           0
      9586 MEMB     124      SAPC     H20S     HAL3     0.900000E-01   1.00800           0
      9587 MEMB     124      SAPC     H20T     HAL3     0.900000E-01   1.00800           0
      9588 MEMB     124      SAPC     C33      CTL2    -0.180000       12.0110           0
      9589 MEMB     124      SAPC     H3X      HAL2     0.900000E-01   1.00800           0
      9590 MEMB     124      SAPC     H3Y      HAL2     0.900000E-01   1.00800           0
      9591 MEMB     124      SAPC     C34      CTL2    -0.180000       12.0110           0
      9592 MEMB     124      SAPC     H4X      HAL2     0.900000E-01   1.00800           0
      9593 MEMB     124      SAPC     H4Y      HAL2     0.900000E-01   1.00800           0
      9594 MEMB     124      SAPC     C35      CTL2    -0.180000       12.0110           0
      9595 MEMB     124      SAPC     H5X      HAL2     0.900000E-01   1.00800           0
      9596 MEMB     124      SAPC     H5Y      HAL2     0.900000E-01   1.00800           0
      9597 MEMB     124      SAPC     C36      CTL2    -0.180000       12.0110           0
      9598 MEMB     124      SAPC     H6X      HAL2     0.900000E-01   1.00800           0
      9599 MEMB     124      SAPC     H6Y      HAL2     0.900000E-01   1.00800           0
      9600 MEMB     124      SAPC     C37      CTL2    -0.180000       12.0110           0
      9601 MEMB     124      SAPC     H7X      HAL2     0.900000E-01   1.00800           0
      9602 MEMB     124      SAPC     H7Y      HAL2     0.900000E-01   1.00800           0
      9603 MEMB     124      SAPC     C38      CTL2    -0.180000       12.0110           0
      9604 MEMB     124      SAPC     H8X      HAL2     0.900000E-01   1.00800           0
      9605 MEMB     124      SAPC     H8Y      HAL2     0.900000E-01   1.00800           0
      9606 MEMB     124      SAPC     C39      CTL2    -0.180000       12.0110           0
      9607 MEMB     124      SAPC     H9X      HAL2     0.900000E-01   1.00800           0
      9608 MEMB     124      SAPC     H9Y      HAL2     0.900000E-01   1.00800           0
      9609 MEMB     124      SAPC     C310     CTL2    -0.180000       12.0110           0
      9610 MEMB     124      SAPC     H10X     HAL2     0.900000E-01   1.00800           0
      9611 MEMB     124      SAPC     H10Y     HAL2     0.900000E-01   1.00800           0
      9612 MEMB     124      SAPC     C311     CTL2    -0.180000       12.0110           0
      9613 MEMB     124      SAPC     H11X     HAL2     0.900000E-01   1.00800           0
      9614 MEMB     124      SAPC     H11Y     HAL2     0.900000E-01   1.00800           0
      9615 MEMB     124      SAPC     C312     CTL2    -0.180000       12.0110           0
      9616 MEMB     124      SAPC     H12X     HAL2     0.900000E-01   1.00800           0
      9617 MEMB     124      SAPC     H12Y     HAL2     0.900000E-01   1.00800           0
      9618 MEMB     124      SAPC     C313     CTL2    -0.180000       12.0110           0
      9619 MEMB     124      SAPC     H13X     HAL2     0.900000E-01   1.00800           0
      9620 MEMB     124      SAPC     H13Y     HAL2     0.900000E-01   1.00800           0
      9621 MEMB     124      SAPC     C314     CTL2    -0.180000       12.0110           0
      9622 MEMB     124      SAPC     H14X     HAL2     0.900000E-01   1.00800           0
      9623 MEMB     124      SAPC     H14Y     HAL2     0.900000E-01   1.00800           0
      9624 MEMB     124      SAPC     C315     CTL2    -0.180000       12.0110           0
      9625 MEMB     124      SAPC     H15X     HAL2     0.900000E-01   1.00800           0
      9626 MEMB     124      SAPC     H15Y     HAL2     0.900000E-01   1.00800           0
      9627 MEMB     124      SAPC     C316     CTL2    -0.180000       12.0110           0
      9628 MEMB     124      SAPC     H16X     HAL2     0.900000E-01   1.00800           0
      9629 MEMB     124      SAPC     H16Y     HAL2     0.900000E-01   1.00800           0
      9630 MEMB     124      SAPC     C317     CTL2    -0.180000       12.0110           0
      9631 MEMB     124      SAPC     H17X     HAL2     0.900000E-01   1.00800           0
      9632 MEMB     124      SAPC     H17Y     HAL2     0.900000E-01   1.00800           0
      9633 MEMB     124      SAPC     C318     CTL3    -0.270000       12.0110           0
      9634 MEMB     124      SAPC     H18X     HAL3     0.900000E-01   1.00800           0
      9635 MEMB     124      SAPC     H18Y     HAL3     0.900000E-01   1.00800           0
      9636 MEMB     124      SAPC     H18Z     HAL3     0.900000E-01   1.00800           0
      9637 MEMB     153      SAPC     N        NTL     -0.600000       14.0070           0
      9638 MEMB     153      SAPC     C12      CTL2    -0.100000       12.0110           0
      9639 MEMB     153      SAPC     H12A     HL       0.250000       1.00800           0
      9640 MEMB     153      SAPC     H12B     HL       0.250000       1.00800           0
      9641 MEMB     153      SAPC     C13      CTL5    -0.350000       12.0110           0
      9642 MEMB     153      SAPC     H13A     HL       0.250000       1.00800           0
      9643 MEMB     153      SAPC     H13B     HL       0.250000       1.00800           0
      9644 MEMB     153      SAPC     H13C     HL       0.250000       1.00800           0
      9645 MEMB     153      SAPC     C14      CTL5    -0.350000       12.0110           0
      9646 MEMB     153      SAPC     H14A     HL       0.250000       1.00800           0
      9647 MEMB     153      SAPC     H14B     HL       0.250000       1.00800           0
      9648 MEMB     153      SAPC     H14C     HL       0.250000       1.00800           0
      9649 MEMB     153      SAPC     C15      CTL5    -0.350000       12.0110           0
      9650 MEMB     153      SAPC     H15A     HL       0.250000       1.00800           0
      9651 MEMB     153      SAPC     H15B     HL       0.250000       1.00800           0
      9652 MEMB     153      SAPC     H15C     HL       0.250000       1.00800           0
      9653 MEMB     153      SAPC     C11      CTL2    -0.800000E-01   12.0110           0
      9654 MEMB     153      SAPC     H11A     HAL2     0.900000E-01   1.00800           0
      9655 MEMB     153      SAPC     H11B     HAL2     0.900000E-01   1.00800           0
      9656 MEMB     153      SAPC     P        PL       1.500000       30.9740           0
      9657 MEMB     153      SAPC     O13      O2L     -0.780000       15.9994           0
      9658 MEMB     153      SAPC     O14      O2L     -0.780000       15.9994           0
      9659 MEMB     153      SAPC     O12      OSLP    -0.570000       15.9994           0
      9660 MEMB     153      SAPC     O11      OSLP    -0.570000       15.9994           0
      9661 MEMB     153      SAPC     C1       CTL2    -0.800000E-01   12.0110           0
      9662 MEMB     153      SAPC     HA       HAL2     0.900000E-01   1.00800           0
      9663 MEMB     153      SAPC     HB       HAL2     0.900000E-01   1.00800           0
      9664 MEMB     153      SAPC     C2       CTL1     0.170000       12.0110           0
      9665 MEMB     153      SAPC     HS       HAL1     0.900000E-01   1.00800           0
      9666 MEMB     153      SAPC     O21      OSL     -0.490000       15.9994           0
      9667 MEMB     153      SAPC     C21      CL       0.900000       12.0110           0
      9668 MEMB     153      SAPC     O22      OBL     -0.630000       15.9994           0
      9669 MEMB     153      SAPC     C22      CTL2    -0.220000       12.0110           0
      9670 MEMB     153      SAPC     H2R      HAL2     0.900000E-01   1.00800           0
      9671 MEMB     153      SAPC     H2S      HAL2     0.900000E-01   1.00800           0
      9672 MEMB     153      SAPC     C3       CTL2     0.800000E-01   12.0110           0
      9673 MEMB     153      SAPC     HX       HAL2     0.900000E-01   1.00800           0
      9674 MEMB     153      SAPC     HY       HAL2     0.900000E-01   1.00800           0
      9675 MEMB     153      SAPC     O31      OSL     -0.490000       15.9994           0
      9676 MEMB     153      SAPC     C31      CL       0.900000       12.0110           0
      9677 MEMB     153      SAPC     O32      OBL     -0.630000       15.9994           0
      9678 MEMB     153      SAPC     C32      CTL2    -0.220000       12.0110           0
      9679 MEMB     153      SAPC     H2X      HAL2     0.900000E-01   1.00800           0
      9680 MEMB     153      SAPC     H2Y      HAL2     0.900000E-01   1.00800           0
      9681 MEMB     153      SAPC     C23      CTL2    -0.180000       12.0110           0
      9682 MEMB     153      SAPC     H3R      HAL2     0.900000E-01   1.00800           0
      9683 MEMB     153      SAPC     H3S      HAL2     0.900000E-01   1.00800           0
      9684 MEMB     153      SAPC     C24      CTL2    -0.180000       12.0110           0
      9685 MEMB     153      SAPC     H4R      HAL2     0.900000E-01   1.00800           0
      9686 MEMB     153      SAPC     H4S      HAL2     0.900000E-01   1.00800           0
      9687 MEMB     153      SAPC     C25      CEL1    -0.150000       12.0110           0
      9688 MEMB     153      SAPC     H5R      HEL1     0.150000       1.00800           0
      9689 MEMB     153      SAPC     C26      CEL1    -0.150000       12.0110           0
      9690 MEMB     153      SAPC     H6R      HEL1     0.150000       1.00800           0
      9691 MEMB     153      SAPC     C27      CTL2    -0.180000       12.0110           0
      9692 MEMB     153      SAPC     H7R      HAL2     0.900000E-01   1.00800           0
      9693 MEMB     153      SAPC     H7S      HAL2     0.900000E-01   1.00800           0
      9694 MEMB     153      SAPC     C28      CEL1    -0.150000       12.0110           0
      9695 MEMB     153      SAPC     H8R      HEL1     0.150000       1.00800           0
      9696 MEMB     153      SAPC     C29      CEL1    -0.150000       12.0110           0
      9697 MEMB     153      SAPC     H9R      HEL1     0.150000       1.00800           0
      9698 MEMB     153      SAPC     C210     CTL2    -0.180000       12.0110           0
      9699 MEMB     153      SAPC     H10R     HAL2     0.900000E-01   1.00800           0
      9700 MEMB     153      SAPC     H10S     HAL2     0.900000E-01   1.00800           0
      9701 MEMB     153      SAPC     C211     CEL1    -0.150000       12.0110           0
      9702 MEMB     153      SAPC     H11R     HEL1     0.150000       1.00800           0
      9703 MEMB     153      SAPC     C212     CEL1    -0.150000       12.0110           0
      9704 MEMB     153      SAPC     H12R     HEL1     0.150000       1.00800           0
      9705 MEMB     153      SAPC     C213     CTL2    -0.180000       12.0110           0
      9706 MEMB     153      SAPC     H13R     HAL2     0.900000E-01   1.00800           0
      9707 MEMB     153      SAPC     H13S     HAL2     0.900000E-01   1.00800           0
      9708 MEMB     153      SAPC     C214     CEL1    -0.150000       12.0110           0
      9709 MEMB     153      SAPC     H14R     HEL1     0.150000       1.00800           0
      9710 MEMB     153      SAPC     C215     CEL1    -0.150000       12.0110           0
      9711 MEMB     153      SAPC     H15R     HEL1     0.150000       1.00800           0
      9712 MEMB     153      SAPC     C216     CTL2    -0.180000       12.0110           0
      9713 MEMB     153      SAPC     H16R     HAL2     0.900000E-01   1.00800           0
      9714 MEMB     153      SAPC     H16S     HAL2     0.900000E-01   1.00800           0
      9715 MEMB     153      SAPC     C217     CTL2    -0.180000       12.0110           0
      9716 MEMB     153      SAPC     H17R     HAL2     0.900000E-01   1.00800           0
      9717 MEMB     153      SAPC     H17S     HAL2     0.900000E-01   1.00800           0
      9718 MEMB     153      SAPC     C218     CTL2    -0.270000       12.0110           0
      9719 MEMB     153      SAPC     H18R     HAL2     0.900000E-01   1.00800           0
      9720 MEMB     153      SAPC     H18S     HAL2     0.900000E-01   1.00800           0
      9721 MEMB     153      SAPC     C219     CTL2    -0.180000       12.0110           0
      9722 MEMB     153      SAPC     H19R     HAL2     0.900000E-01   1.00800           0
      9723 MEMB     153      SAPC     H19S     HAL2     0.900000E-01   1.00800           0
      9724 MEMB     153      SAPC     C220     CTL3    -0.180000       12.0110           0
      9725 MEMB     153      SAPC     H20R     HAL3     0.900000E-01   1.00800           0
      9726 MEMB     153      SAPC     H20S     HAL3     0.900000E-01   1.00800           0
      9727 MEMB     153      SAPC     H20T     HAL3     0.900000E-01   1.00800           0
      9728 MEMB     153      SAPC     C33      CTL2    -0.180000       12.0110           0
      9729 MEMB     153      SAPC     H3X      HAL2     0.900000E-01   1.00800           0
      9730 MEMB     153      SAPC     H3Y      HAL2     0.900000E-01   1.00800           0
      9731 MEMB     153      SAPC     C34      CTL2    -0.180000       12.0110           0
      9732 MEMB     153      SAPC     H4X      HAL2     0.900000E-01   1.00800           0
      9733 MEMB     153      SAPC     H4Y      HAL2     0.900000E-01   1.00800           0
      9734 MEMB     153      SAPC     C35      CTL2    -0.180000       12.0110           0
      9735 MEMB     153      SAPC     H5X      HAL2     0.900000E-01   1.00800           0
      9736 MEMB     153      SAPC     H5Y      HAL2     0.900000E-01   1.00800           0
      9737 MEMB     153      SAPC     C36      CTL2    -0.180000       12.0110           0
      9738 MEMB     153      SAPC     H6X      HAL2     0.900000E-01   1.00800           0
      9739 MEMB     153      SAPC     H6Y      HAL2     0.900000E-01   1.00800           0
      9740 MEMB     153      SAPC     C37      CTL2    -0.180000       12.0110           0
      9741 MEMB     153      SAPC     H7X      HAL2     0.900000E-01   1.00800           0
      9742 MEMB     153      SAPC     H7Y      HAL2     0.900000E-01   1.00800           0
      9743 MEMB     153      SAPC     C38      CTL2    -0.180000       12.0110           0
      9744 MEMB     153      SAPC     H8X      HAL2     0.900000E-01   1.00800           0
      9745 MEMB     153      SAPC     H8Y      HAL2     0.900000E-01   1.00800           0
      9746 MEMB     153      SAPC     C39      CTL2    -0.180000       12.0110           0
      9747 MEMB     153      SAPC     H9X      HAL2     0.900000E-01   1.00800           0
      9748 MEMB     153      SAPC     H9Y      HAL2     0.900000E-01   1.00800           0
      9749 MEMB     153      SAPC     C310     CTL2    -0.180000       12.0110           0
      9750 MEMB     153      SAPC     H10X     HAL2     0.900000E-01   1.00800           0
      9751 MEMB     153      SAPC     H10Y     HAL2     0.900000E-01   1.00800           0
      9752 MEMB     153      SAPC     C311     CTL2    -0.180000       12.0110           0
      9753 MEMB     153      SAPC     H11X     HAL2     0.900000E-01   1.00800           0
      9754 MEMB     153      SAPC     H11Y     HAL2     0.900000E-01   1.00800           0
      9755 MEMB     153      SAPC     C312     CTL2    -0.180000       12.0110           0
      9756 MEMB     153      SAPC     H12X     HAL2     0.900000E-01   1.00800           0
      9757 MEMB     153      SAPC     H12Y     HAL2     0.900000E-01   1.00800           0
      9758 MEMB     153      SAPC     C313     CTL2    -0.180000       12.0110           0
      9759 MEMB     153      SAPC     H13X     HAL2     0.900000E-01   1.00800           0
      9760 MEMB     153      SAPC     H13Y     HAL2     0.900000E-01   1.00800           0
      9761 MEMB     153      SAPC     C314     CTL2    -0.180000       12.0110           0
      9762 MEMB     153      SAPC     H14X     HAL2     0.900000E-01   1.00800           0
      9763 MEMB     153      SAPC     H14Y     HAL2     0.900000E-01   1.00800           0
      9764 MEMB     153      SAPC     C315     CTL2    -0.180000       12.0110           0
      9765 MEMB     153      SAPC     H15X     HAL2     0.900000E-01   1.00800           0
      9766 MEMB     153      SAPC     H15Y     HAL2     0.900000E-01   1.00800           0
      9767 MEMB     153      SAPC     C316     CTL2    -0.180000       12.0110           0
      9768 MEMB     153      SAPC     H16X     HAL2     0.900000E-01   1.00800           0
      9769 MEMB     153      SAPC     H16Y     HAL2     0.900000E-01   1.00800           0
      9770 MEMB     153      SAPC     C317     CTL2    -0.180000       12.0110           0
      9771 MEMB     153      SAPC     H17X     HAL2     0.900000E-01   1.00800           0
      9772 MEMB     153      SAPC     H17Y     HAL2     0.900000E-01   1.00800           0
      9773 MEMB     153      SAPC     C318     CTL3    -0.270000       12.0110           0
      9774 MEMB     153      SAPC     H18X     HAL3     0.900000E-01   1.00800           0
      9775 MEMB     153      SAPC     H18Y     HAL3     0.900000E-01   1.00800           0
      9776 MEMB     153      SAPC     H18Z     HAL3     0.900000E-01   1.00800           0
      9777 MEMB     165      SAPC     N        NTL     -0.600000       14.0070           0
      9778 MEMB     165      SAPC     C12      CTL2    -0.100000       12.0110           0
      9779 MEMB     165      SAPC     H12A     HL       0.250000       1.00800           0
      9780 MEMB     165      SAPC     H12B     HL       0.250000       1.00800           0
      9781 MEMB     165      SAPC     C13      CTL5    -0.350000       12.0110           0
      9782 MEMB     165      SAPC     H13A     HL       0.250000       1.00800           0
      9783 MEMB     165      SAPC     H13B     HL       0.250000       1.00800           0
      9784 MEMB     165      SAPC     H13C     HL       0.250000       1.00800           0
      9785 MEMB     165      SAPC     C14      CTL5    -0.350000       12.0110           0
      9786 MEMB     165      SAPC     H14A     HL       0.250000       1.00800           0
      9787 MEMB     165      SAPC     H14B     HL       0.250000       1.00800           0
      9788 MEMB     165      SAPC     H14C     HL       0.250000       1.00800           0
      9789 MEMB     165      SAPC     C15      CTL5    -0.350000       12.0110           0
      9790 MEMB     165      SAPC     H15A     HL       0.250000       1.00800           0
      9791 MEMB     165      SAPC     H15B     HL       0.250000       1.00800           0
      9792 MEMB     165      SAPC     H15C     HL       0.250000       1.00800           0
      9793 MEMB     165      SAPC     C11      CTL2    -0.800000E-01   12.0110           0
      9794 MEMB     165      SAPC     H11A     HAL2     0.900000E-01   1.00800           0
      9795 MEMB     165      SAPC     H11B     HAL2     0.900000E-01   1.00800           0
      9796 MEMB     165      SAPC     P        PL       1.500000       30.9740           0
      9797 MEMB     165      SAPC     O13      O2L     -0.780000       15.9994           0
      9798 MEMB     165      SAPC     O14      O2L     -0.780000       15.9994           0
      9799 MEMB     165      SAPC     O12      OSLP    -0.570000       15.9994           0
      9800 MEMB     165      SAPC     O11      OSLP    -0.570000       15.9994           0
      9801 MEMB     165      SAPC     C1       CTL2    -0.800000E-01   12.0110           0
      9802 MEMB     165      SAPC     HA       HAL2     0.900000E-01   1.00800           0
      9803 MEMB     165      SAPC     HB       HAL2     0.900000E-01   1.00800           0
      9804 MEMB     165      SAPC     C2       CTL1     0.170000       12.0110           0
      9805 MEMB     165      SAPC     HS       HAL1     0.900000E-01   1.00800           0
      9806 MEMB     165      SAPC     O21      OSL     -0.490000       15.9994           0
      9807 MEMB     165      SAPC     C21      CL       0.900000       12.0110           0
      9808 MEMB     165      SAPC     O22      OBL     -0.630000       15.9994           0
      9809 MEMB     165      SAPC     C22      CTL2    -0.220000       12.0110           0
      9810 MEMB     165      SAPC     H2R      HAL2     0.900000E-01   1.00800           0
      9811 MEMB     165      SAPC     H2S      HAL2     0.900000E-01   1.00800           0
      9812 MEMB     165      SAPC     C3       CTL2     0.800000E-01   12.0110           0
      9813 MEMB     165      SAPC     HX       HAL2     0.900000E-01   1.00800           0
      9814 MEMB     165      SAPC     HY       HAL2     0.900000E-01   1.00800           0
      9815 MEMB     165      SAPC     O31      OSL     -0.490000       15.9994           0
      9816 MEMB     165      SAPC     C31      CL       0.900000       12.0110           0
      9817 MEMB     165      SAPC     O32      OBL     -0.630000       15.9994           0
      9818 MEMB     165      SAPC     C32      CTL2    -0.220000       12.0110           0
      9819 MEMB     165      SAPC     H2X      HAL2     0.900000E-01   1.00800           0
      9820 MEMB     165      SAPC     H2Y      HAL2     0.900000E-01   1.00800           0
      9821 MEMB     165      SAPC     C23      CTL2    -0.180000       12.0110           0
      9822 MEMB     165      SAPC     H3R      HAL2     0.900000E-01   1.00800           0
      9823 MEMB     165      SAPC     H3S      HAL2     0.900000E-01   1.00800           0
      9824 MEMB     165      SAPC     C24      CTL2    -0.180000       12.0110           0
      9825 MEMB     165      SAPC     H4R      HAL2     0.900000E-01   1.00800           0
      9826 MEMB     165      SAPC     H4S      HAL2     0.900000E-01   1.00800           0
      9827 MEMB     165      SAPC     C25      CEL1    -0.150000       12.0110           0
      9828 MEMB     165      SAPC     H5R      HEL1     0.150000       1.00800           0
      9829 MEMB     165      SAPC     C26      CEL1    -0.150000       12.0110           0
      9830 MEMB     165      SAPC     H6R      HEL1     0.150000       1.00800           0
      9831 MEMB     165      SAPC     C27      CTL2    -0.180000       12.0110           0
      9832 MEMB     165      SAPC     H7R      HAL2     0.900000E-01   1.00800           0
      9833 MEMB     165      SAPC     H7S      HAL2     0.900000E-01   1.00800           0
      9834 MEMB     165      SAPC     C28      CEL1    -0.150000       12.0110           0
      9835 MEMB     165      SAPC     H8R      HEL1     0.150000       1.00800           0
      9836 MEMB     165      SAPC     C29      CEL1    -0.150000       12.0110           0
      9837 MEMB     165      SAPC     H9R      HEL1     0.150000       1.00800           0
      9838 MEMB     165      SAPC     C210     CTL2    -0.180000       12.0110           0
      9839 MEMB     165      SAPC     H10R     HAL2     0.900000E-01   1.00800           0
      9840 MEMB     165      SAPC     H10S     HAL2     0.900000E-01   1.00800           0
      9841 MEMB     165      SAPC     C211     CEL1    -0.150000       12.0110           0
      9842 MEMB     165      SAPC     H11R     HEL1     0.150000       1.00800           0
      9843 MEMB     165      SAPC     C212     CEL1    -0.150000       12.0110           0
      9844 MEMB     165      SAPC     H12R     HEL1     0.150000       1.00800           0
      9845 MEMB     165      SAPC     C213     CTL2    -0.180000       12.0110           0
      9846 MEMB     165      SAPC     H13R     HAL2     0.900000E-01   1.00800           0
      9847 MEMB     165      SAPC     H13S     HAL2     0.900000E-01   1.00800           0
      9848 MEMB     165      SAPC     C214     CEL1    -0.150000       12.0110           0
      9849 MEMB     165      SAPC     H14R     HEL1     0.150000       1.00800           0
      9850 MEMB     165      SAPC     C215     CEL1    -0.150000       12.0110           0
      9851 MEMB     165      SAPC     H15R     HEL1     0.150000       1.00800           0
      9852 MEMB     165      SAPC     C216     CTL2    -0.180000       12.0110           0
      9853 MEMB     165      SAPC     H16R     HAL2     0.900000E-01   1.00800           0
      9854 MEMB     165      SAPC     H16S     HAL2     0.900000E-01   1.00800           0
      9855 MEMB     165      SAPC     C217     CTL2    -0.180000       12.0110           0
      9856 MEMB     165      SAPC     H17R     HAL2     0.900000E-01   1.00800           0
      9857 MEMB     165      SAPC     H17S     HAL2     0.900000E-01   1.00800           0
      9858 MEMB     165      SAPC     C218     CTL2    -0.270000       12.0110           0
      9859 MEMB     165      SAPC     H18R     HAL2     0.900000E-01   1.00800           0
      9860 MEMB     165      SAPC     H18S     HAL2     0.900000E-01   1.00800           0
      9861 MEMB     165      SAPC     C219     CTL2    -0.180000       12.0110           0
      9862 MEMB     165      SAPC     H19R     HAL2     0.900000E-01   1.00800           0
      9863 MEMB     165      SAPC     H19S     HAL2     0.900000E-01   1.00800           0
      9864 MEMB     165      SAPC     C220     CTL3    -0.180000       12.0110           0
      9865 MEMB     165      SAPC     H20R     HAL3     0.900000E-01   1.00800           0
      9866 MEMB     165      SAPC     H20S     HAL3     0.900000E-01   1.00800           0
      9867 MEMB     165      SAPC     H20T     HAL3     0.900000E-01   1.00800           0
      9868 MEMB     165      SAPC     C33      CTL2    -0.180000       12.0110           0
      9869 MEMB     165      SAPC     H3X      HAL2     0.900000E-01   1.00800           0
      9870 MEMB     165      SAPC     H3Y      HAL2     0.900000E-01   1.00800           0
      9871 MEMB     165      SAPC     C34      CTL2    -0.180000       12.0110           0
      9872 MEMB     165      SAPC     H4X      HAL2     0.900000E-01   1.00800           0
      9873 MEMB     165      SAPC     H4Y      HAL2     0.900000E-01   1.00800           0
      9874 MEMB     165      SAPC     C35      CTL2    -0.180000       12.0110           0
      9875 MEMB     165      SAPC     H5X      HAL2     0.900000E-01   1.00800           0
      9876 MEMB     165      SAPC     H5Y      HAL2     0.900000E-01   1.00800           0
      9877 MEMB     165      SAPC     C36      CTL2    -0.180000       12.0110           0
      9878 MEMB     165      SAPC     H6X      HAL2     0.900000E-01   1.00800           0
      9879 MEMB     165      SAPC     H6Y      HAL2     0.900000E-01   1.00800           0
      9880 MEMB     165      SAPC     C37      CTL2    -0.180000       12.0110           0
      9881 MEMB     165      SAPC     H7X      HAL2     0.900000E-01   1.00800           0
      9882 MEMB     165      SAPC     H7Y      HAL2     0.900000E-01   1.00800           0
      9883 MEMB     165      SAPC     C38      CTL2    -0.180000       12.0110           0
      9884 MEMB     165      SAPC     H8X      HAL2     0.900000E-01   1.00800           0
      9885 MEMB     165      SAPC     H8Y      HAL2     0.900000E-01   1.00800           0
      9886 MEMB     165      SAPC     C39      CTL2    -0.180000       12.0110           0
      9887 MEMB     165      SAPC     H9X      HAL2     0.900000E-01   1.00800           0
      9888 MEMB     165      SAPC     H9Y      HAL2     0.900000E-01   1.00800           0
      9889 MEMB     165      SAPC     C310     CTL2    -0.180000       12.0110           0
      9890 MEMB     165      SAPC     H10X     HAL2     0.900000E-01   1.00800           0
      9891 MEMB     165      SAPC     H10Y     HAL2     0.900000E-01   1.00800           0
      9892 MEMB     165      SAPC     C311     CTL2    -0.180000       12.0110           0
      9893 MEMB     165      SAPC     H11X     HAL2     0.900000E-01   1.00800           0
      9894 MEMB     165      SAPC     H11Y     HAL2     0.900000E-01   1.00800           0
      9895 MEMB     165      SAPC     C312     CTL2    -0.180000       12.0110           0
      9896 MEMB     165      SAPC     H12X     HAL2     0.900000E-01   1.00800           0
      9897 MEMB     165      SAPC     H12Y     HAL2     0.900000E-01   1.00800           0
      9898 MEMB     165      SAPC     C313     CTL2    -0.180000       12.0110           0
      9899 MEMB     165      SAPC     H13X     HAL2     0.900000E-01   1.00800           0
      9900 MEMB     165      SAPC     H13Y     HAL2     0.900000E-01   1.00800           0
      9901 MEMB     165      SAPC     C314     CTL2    -0.180000       12.0110           0
      9902 MEMB     165      SAPC     H14X     HAL2     0.900000E-01   1.00800           0
      9903 MEMB     165      SAPC     H14Y     HAL2     0.900000E-01   1.00800           0
      9904 MEMB     165      SAPC     C315     CTL2    -0.180000       12.0110           0
      9905 MEMB     165      SAPC     H15X     HAL2     0.900000E-01   1.00800           0
      9906 MEMB     165      SAPC     H15Y     HAL2     0.900000E-01   1.00800           0
      9907 MEMB     165      SAPC     C316     CTL2    -0.180000       12.0110           0
      9908 MEMB     165      SAPC     H16X     HAL2     0.900000E-01   1.00800           0
      9909 MEMB     165      SAPC     H16Y     HAL2     0.900000E-01   1.00800           0
      9910 MEMB     165      SAPC     C317     CTL2    -0.180000       12.0110           0
      9911 MEMB     165      SAPC     H17X     HAL2     0.900000E-01   1.00800           0
      9912 MEMB     165      SAPC     H17Y     HAL2     0.900000E-01   1.00800           0
      9913 MEMB     165      SAPC     C318     CTL3    -0.270000       12.0110           0
      9914 MEMB     165      SAPC     H18X     HAL3     0.900000E-01   1.00800           0
      9915 MEMB     165      SAPC     H18Y     HAL3     0.900000E-01   1.00800           0
      9916 MEMB     165      SAPC     H18Z     HAL3     0.900000E-01   1.00800           0
      9917 MEMB     191      SAPC     N        NTL     -0.600000       14.0070           0
      9918 MEMB     191      SAPC     C12      CTL2    -0.100000       12.0110           0
      9919 MEMB     191      SAPC     H12A     HL       0.250000       1.00800           0
      9920 MEMB     191      SAPC     H12B     HL       0.250000       1.00800           0
      9921 MEMB     191      SAPC     C13      CTL5    -0.350000       12.0110           0
      9922 MEMB     191      SAPC     H13A     HL       0.250000       1.00800           0
      9923 MEMB     191      SAPC     H13B     HL       0.250000       1.00800           0
      9924 MEMB     191      SAPC     H13C     HL       0.250000       1.00800           0
      9925 MEMB     191      SAPC     C14      CTL5    -0.350000       12.0110           0
      9926 MEMB     191      SAPC     H14A     HL       0.250000       1.00800           0
      9927 MEMB     191      SAPC     H14B     HL       0.250000       1.00800           0
      9928 MEMB     191      SAPC     H14C     HL       0.250000       1.00800           0
      9929 MEMB     191      SAPC     C15      CTL5    -0.350000       12.0110           0
      9930 MEMB     191      SAPC     H15A     HL       0.250000       1.00800           0
      9931 MEMB     191      SAPC     H15B     HL       0.250000       1.00800           0
      9932 MEMB     191      SAPC     H15C     HL       0.250000       1.00800           0
      9933 MEMB     191      SAPC     C11      CTL2    -0.800000E-01   12.0110           0
      9934 MEMB     191      SAPC     H11A     HAL2     0.900000E-01   1.00800           0
      9935 MEMB     191      SAPC     H11B     HAL2     0.900000E-01   1.00800           0
      9936 MEMB     191      SAPC     P        PL       1.500000       30.9740           0
      9937 MEMB     191      SAPC     O13      O2L     -0.780000       15.9994           0
      9938 MEMB     191      SAPC     O14      O2L     -0.780000       15.9994           0
      9939 MEMB     191      SAPC     O12      OSLP    -0.570000       15.9994           0
      9940 MEMB     191      SAPC     O11      OSLP    -0.570000       15.9994           0
      9941 MEMB     191      SAPC     C1       CTL2    -0.800000E-01   12.0110           0
      9942 MEMB     191      SAPC     HA       HAL2     0.900000E-01   1.00800           0
      9943 MEMB     191      SAPC     HB       HAL2     0.900000E-01   1.00800           0
      9944 MEMB     191      SAPC     C2       CTL1     0.170000       12.0110           0
      9945 MEMB     191      SAPC     HS       HAL1     0.900000E-01   1.00800           0
      9946 MEMB     191      SAPC     O21      OSL     -0.490000       15.9994           0
      9947 MEMB     191      SAPC     C21      CL       0.900000       12.0110           0
      9948 MEMB     191      SAPC     O22      OBL     -0.630000       15.9994           0
      9949 MEMB     191      SAPC     C22      CTL2    -0.220000       12.0110           0
      9950 MEMB     191      SAPC     H2R      HAL2     0.900000E-01   1.00800           0
      9951 MEMB     191      SAPC     H2S      HAL2     0.900000E-01   1.00800           0
      9952 MEMB     191      SAPC     C3       CTL2     0.800000E-01   12.0110           0
      9953 MEMB     191      SAPC     HX       HAL2     0.900000E-01   1.00800           0
      9954 MEMB     191      SAPC     HY       HAL2     0.900000E-01   1.00800           0
      9955 MEMB     191      SAPC     O31      OSL     -0.490000       15.9994           0
      9956 MEMB     191      SAPC     C31      CL       0.900000       12.0110           0
      9957 MEMB     191      SAPC     O32      OBL     -0.630000       15.9994           0
      9958 MEMB     191      SAPC     C32      CTL2    -0.220000       12.0110           0
      9959 MEMB     191      SAPC     H2X      HAL2     0.900000E-01   1.00800           0
      9960 MEMB     191      SAPC     H2Y      HAL2     0.900000E-01   1.00800           0
      9961 MEMB     191      SAPC     C23      CTL2    -0.180000       12.0110           0
      9962 MEMB     191      SAPC     H3R      HAL2     0.900000E-01   1.00800           0
      9963 MEMB     191      SAPC     H3S      HAL2     0.900000E-01   1.00800           0
      9964 MEMB     191      SAPC     C24      CTL2    -0.180000       12.0110           0
      9965 MEMB     191      SAPC     H4R      HAL2     0.900000E-01   1.00800           0
      9966 MEMB     191      SAPC     H4S      HAL2     0.900000E-01   1.00800           0
      9967 MEMB     191      SAPC     C25      CEL1    -0.150000       12.0110           0
      9968 MEMB     191      SAPC     H5R      HEL1     0.150000       1.00800           0
      9969 MEMB     191      SAPC     C26      CEL1    -0.150000       12.0110           0
      9970 MEMB     191      SAPC     H6R      HEL1     0.150000       1.00800           0
      9971 MEMB     191      SAPC     C27      CTL2    -0.180000       12.0110           0
      9972 MEMB     191      SAPC     H7R      HAL2     0.900000E-01   1.00800           0
      9973 MEMB     191      SAPC     H7S      HAL2     0.900000E-01   1.00800           0
      9974 MEMB     191      SAPC     C28      CEL1    -0.150000       12.0110           0
      9975 MEMB     191      SAPC     H8R      HEL1     0.150000       1.00800           0
      9976 MEMB     191      SAPC     C29      CEL1    -0.150000       12.0110           0
      9977 MEMB     191      SAPC     H9R      HEL1     0.150000       1.00800           0
      9978 MEMB     191      SAPC     C210     CTL2    -0.180000       12.0110           0
      9979 MEMB     191      SAPC     H10R     HAL2     0.900000E-01   1.00800           0
      9980 MEMB     191      SAPC     H10S     HAL2     0.900000E-01   1.00800           0
      9981 MEMB     191      SAPC     C211     CEL1    -0.150000       12.0110           0
      9982 MEMB     191      SAPC     H11R     HEL1     0.150000       1.00800           0
      9983 MEMB     191      SAPC     C212     CEL1    -0.150000       12.0110           0
      9984 MEMB     191      SAPC     H12R     HEL1     0.150000       1.00800           0
      9985 MEMB     191      SAPC     C213     CTL2    -0.180000       12.0110           0
      9986 MEMB     191      SAPC     H13R     HAL2     0.900000E-01   1.00800           0
      9987 MEMB     191      SAPC     H13S     HAL2     0.900000E-01   1.00800           0
      9988 MEMB     191      SAPC     C214     CEL1    -0.150000       12.0110           0
      9989 MEMB     191      SAPC     H14R     HEL1     0.150000       1.00800           0
      9990 MEMB     191      SAPC     C215     CEL1    -0.150000       12.0110           0
      9991 MEMB     191      SAPC     H15R     HEL1     0.150000       1.00800           0
      9992 MEMB     191      SAPC     C216     CTL2    -0.180000       12.0110           0
      9993 MEMB     191      SAPC     H16R     HAL2     0.900000E-01   1.00800           0
      9994 MEMB     191      SAPC     H16S     HAL2     0.900000E-01   1.00800           0
      9995 MEMB     191      SAPC     C217     CTL2    -0.180000       12.0110           0
      9996 MEMB     191      SAPC     H17R     HAL2     0.900000E-01   1.00800           0
      9997 MEMB     191      SAPC     H17S     HAL2     0.900000E-01   1.00800           0
      9998 MEMB     191      SAPC     C218     CTL2    -0.270000       12.0110           0
      9999 MEMB     191      SAPC     H18R     HAL2     0.900000E-01   1.00800           0
     10000 MEMB     191      SAPC     H18S     HAL2     0.900000E-01   1.00800           0
     10001 MEMB     191      SAPC     C219     CTL2    -0.180000       12.0110           0
     10002 MEMB     191      SAPC     H19R     HAL2     0.900000E-01   1.00800           0
     10003 MEMB     191      SAPC     H19S     HAL2     0.900000E-01   1.00800           0
     10004 MEMB     191      SAPC     C220     CTL3    -0.180000       12.0110           0
     10005 MEMB     191      SAPC     H20R     HAL3     0.900000E-01   1.00800           0
     10006 MEMB     191      SAPC     H20S     HAL3     0.900000E-01   1.00800           0
     10007 MEMB     191      SAPC     H20T     HAL3     0.900000E-01   1.00800           0
     10008 MEMB     191      SAPC     C33      CTL2    -0.180000       12.0110           0
     10009 MEMB     191      SAPC     H3X      HAL2     0.900000E-01   1.00800           0
     10010 MEMB     191      SAPC     H3Y      HAL2     0.900000E-01   1.00800           0
     10011 MEMB     191      SAPC     C34      CTL2    -0.180000       12.0110           0
     10012 MEMB     191      SAPC     H4X      HAL2     0.900000E-01   1.00800           0
     10013 MEMB     191      SAPC     H4Y      HAL2     0.900000E-01   1.00800           0
     10014 MEMB     191      SAPC     C35      CTL2    -0.180000       12.0110           0
     10015 MEMB     191      SAPC     H5X      HAL2     0.900000E-01   1.00800           0
     10016 MEMB     191      SAPC     H5Y      HAL2     0.900000E-01   1.00800           0
     10017 MEMB     191      SAPC     C36      CTL2    -0.180000       12.0110           0
     10018 MEMB     191      SAPC     H6X      HAL2     0.900000E-01   1.00800           0
     10019 MEMB     191      SAPC     H6Y      HAL2     0.900000E-01   1.00800           0
     10020 MEMB     191      SAPC     C37      CTL2    -0.180000       12.0110           0
     10021 MEMB     191      SAPC     H7X      HAL2     0.900000E-01   1.00800           0
     10022 MEMB     191      SAPC     H7Y      HAL2     0.900000E-01   1.00800           0
     10023 MEMB     191      SAPC     C38      CTL2    -0.180000       12.0110           0
     10024 MEMB     191      SAPC     H8X      HAL2     0.900000E-01   1.00800           0
     10025 MEMB     191      SAPC     H8Y      HAL2     0.900000E-01   1.00800           0
     10026 MEMB     191      SAPC     C39      CTL2    -0.180000       12.0110           0
     10027 MEMB     191      SAPC     H9X      HAL2     0.900000E-01   1.00800           0
     10028 MEMB     191      SAPC     H9Y      HAL2     0.900000E-01   1.00800           0
     10029 MEMB     191      SAPC     C310     CTL2    -0.180000       12.0110           0
     10030 MEMB     191      SAPC     H10X     HAL2     0.900000E-01   1.00800           0
     10031 MEMB     191      SAPC     H10Y     HAL2     0.900000E-01   1.00800           0
     10032 MEMB     191      SAPC     C311     CTL2    -0.180000       12.0110           0
     10033 MEMB     191      SAPC     H11X     HAL2     0.900000E-01   1.00800           0
     10034 MEMB     191      SAPC     H11Y     HAL2     0.900000E-01   1.00800           0
     10035 MEMB     191      SAPC     C312     CTL2    -0.180000       12.0110           0
     10036 MEMB     191      SAPC     H12X     HAL2     0.900000E-01   1.00800           0
     10037 MEMB     191      SAPC     H12Y     HAL2     0.900000E-01   1.00800           0
     10038 MEMB     191      SAPC     C313     CTL2    -0.180000       12.0110           0
     10039 MEMB     191      SAPC     H13X     HAL2     0.900000E-01   1.00800           0
     10040 MEMB     191      SAPC     H13Y     HAL2     0.900000E-01   1.00800           0
     10041 MEMB     191      SAPC     C314     CTL2    -0.180000       12.0110           0
     10042 MEMB     191      SAPC     H14X     HAL2     0.900000E-01   1.00800           0
     10043 MEMB     191      SAPC     H14Y     HAL2     0.900000E-01   1.00800           0
     10044 MEMB     191      SAPC     C315     CTL2    -0.180000       12.0110           0
     10045 MEMB     191      SAPC     H15X     HAL2     0.900000E-01   1.00800           0
     10046 MEMB     191      SAPC     H15Y     HAL2     0.900000E-01   1.00800           0
     10047 MEMB     191      SAPC     C316     CTL2    -0.180000       12.0110           0
     10048 MEMB     191      SAPC     H16X     HAL2     0.900000E-01   1.00800           0
     10049 MEMB     191      SAPC     H16Y     HAL2     0.900000E-01   1.00800           0
     10050 MEMB     191      SAPC     C317     CTL2    -0.180000       12.0110           0
     10051 MEMB     191      SAPC     H17X     HAL2     0.900000E-01   1.00800           0
     10052 MEMB     191      SAPC     H17Y     HAL2     0.900000E-01   1.00800           0
     10053 MEMB     191      SAPC     C318     CTL3    -0.270000       12.0110           0
     10054 MEMB     191      SAPC     H18X     HAL3     0.900000E-01   1.00800           0
     10055 MEMB     191      SAPC     H18Y     HAL3     0.900000E-01   1.00800           0
     10056 MEMB     191      SAPC     H18Z     HAL3     0.900000E-01   1.00800           0
     10057 MEMB     6        OSM      N        NTL     -0.600000       14.0070           0
     10058 MEMB     6        OSM      C15      CTL5    -0.350000       12.0110           0
     10059 MEMB     6        OSM      H15A     HL       0.250000       1.00800           0
     10060 MEMB     6        OSM      H15B     HL       0.250000       1.00800           0
     10061 MEMB     6        OSM      H15C     HL       0.250000       1.00800           0
     10062 MEMB     6        OSM      C14      CTL5    -0.350000       12.0110           0
     10063 MEMB     6        OSM      H14A     HL       0.250000       1.00800           0
     10064 MEMB     6        OSM      H14B     HL       0.250000       1.00800           0
     10065 MEMB     6        OSM      H14C     HL       0.250000       1.00800           0
     10066 MEMB     6        OSM      C13      CTL5    -0.350000       12.0110           0
     10067 MEMB     6        OSM      H13A     HL       0.250000       1.00800           0
     10068 MEMB     6        OSM      H13B     HL       0.250000       1.00800           0
     10069 MEMB     6        OSM      H13C     HL       0.250000       1.00800           0
     10070 MEMB     6        OSM      C12      CTL2    -0.100000       12.0110           0
     10071 MEMB     6        OSM      H12A     HL       0.250000       1.00800           0
     10072 MEMB     6        OSM      H12B     HL       0.250000       1.00800           0
     10073 MEMB     6        OSM      C11      CTL2    -0.800000E-01   12.0110           0
     10074 MEMB     6        OSM      H11A     HAL2     0.900000E-01   1.00800           0
     10075 MEMB     6        OSM      H11B     HAL2     0.900000E-01   1.00800           0
     10076 MEMB     6        OSM      P        PL       1.500000       30.9740           0
     10077 MEMB     6        OSM      O13      O2L     -0.780000       15.9994           0
     10078 MEMB     6        OSM      O14      O2L     -0.780000       15.9994           0
     10079 MEMB     6        OSM      O11      OSLP    -0.570000       15.9994           0
     10080 MEMB     6        OSM      O12      OSLP    -0.570000       15.9994           0
     10081 MEMB     6        OSM      C1S      CTL2    -0.800000E-01   12.0110           0
     10082 MEMB     6        OSM      H1S      HAL2     0.900000E-01   1.00800           0
     10083 MEMB     6        OSM      H1T      HAL2     0.900000E-01   1.00800           0
     10084 MEMB     6        OSM      NF       NHL     -0.700000       14.0070           0
     10085 MEMB     6        OSM      HNF      H        0.350000       1.00800           0
     10086 MEMB     6        OSM      C2S      CTL1     0.300000       12.0110           0
     10087 MEMB     6        OSM      H2S      HAL1     0.500000E-01   1.00800           0
     10088 MEMB     6        OSM      C3S      CTO1     0.500000       12.0110           0
     10089 MEMB     6        OSM      H3S      HAL1    -0.110000       1.00800           0
     10090 MEMB     6        OSM      O3       OHL     -0.690000       15.9994           0
     10091 MEMB     6        OSM      HO3      HOL      0.300000       1.00800           0
     10092 MEMB     6        OSM      C4S      CEL3    -0.150000       12.0110           0
     10093 MEMB     6        OSM      H4S      HEL1     0.150000       1.00800           0
     10094 MEMB     6        OSM      C5S      CEL3    -0.150000       12.0110           0
     10095 MEMB     6        OSM      H5S      HEL1     0.150000       1.00800           0
     10096 MEMB     6        OSM      C6S      CTL2    -0.180000       12.0110           0
     10097 MEMB     6        OSM      H6S      HAL2     0.900000E-01   1.00800           0
     10098 MEMB     6        OSM      H6T      HAL2     0.900000E-01   1.00800           0
     10099 MEMB     6        OSM      C7S      CTL2    -0.180000       12.0110           0
     10100 MEMB     6        OSM      H7S      HAL2     0.900000E-01   1.00800           0
     10101 MEMB     6        OSM      H7T      HAL2     0.900000E-01   1.00800           0
     10102 MEMB     6        OSM      C8S      CTL2    -0.180000       12.0110           0
     10103 MEMB     6        OSM      H8S      HAL2     0.900000E-01   1.00800           0
     10104 MEMB     6        OSM      H8T      HAL2     0.900000E-01   1.00800           0
     10105 MEMB     6        OSM      C9S      CTL2    -0.180000       12.0110           0
     10106 MEMB     6        OSM      H9S      HAL2     0.900000E-01   1.00800           0
     10107 MEMB     6        OSM      H9T      HAL2     0.900000E-01   1.00800           0
     10108 MEMB     6        OSM      C10S     CTL2    -0.180000       12.0110           0
     10109 MEMB     6        OSM      H10S     HAL2     0.900000E-01   1.00800           0
     10110 MEMB     6        OSM      H10T     HAL2     0.900000E-01   1.00800           0
     10111 MEMB     6        OSM      C11S     CTL2    -0.180000       12.0110           0
     10112 MEMB     6        OSM      H11S     HAL2     0.900000E-01   1.00800           0
     10113 MEMB     6        OSM      H11T     HAL2     0.900000E-01   1.00800           0
     10114 MEMB     6        OSM      C12S     CTL2    -0.180000       12.0110           0
     10115 MEMB     6        OSM      H12S     HAL2     0.900000E-01   1.00800           0
     10116 MEMB     6        OSM      H12T     HAL2     0.900000E-01   1.00800           0
     10117 MEMB     6        OSM      C13S     CTL2    -0.180000       12.0110           0
     10118 MEMB     6        OSM      H13S     HAL2     0.900000E-01   1.00800           0
     10119 MEMB     6        OSM      H13T     HAL2     0.900000E-01   1.00800           0
     10120 MEMB     6        OSM      C14S     CTL2    -0.180000       12.0110           0
     10121 MEMB     6        OSM      H14S     HAL2     0.900000E-01   1.00800           0
     10122 MEMB     6        OSM      H14T     HAL2     0.900000E-01   1.00800           0
     10123 MEMB     6        OSM      C15S     CTL2    -0.180000       12.0110           0
     10124 MEMB     6        OSM      H15S     HAL2     0.900000E-01   1.00800           0
     10125 MEMB     6        OSM      H15T     HAL2     0.900000E-01   1.00800           0
     10126 MEMB     6        OSM      C16S     CTL2    -0.180000       12.0110           0
     10127 MEMB     6        OSM      H16S     HAL2     0.900000E-01   1.00800           0
     10128 MEMB     6        OSM      H16T     HAL2     0.900000E-01   1.00800           0
     10129 MEMB     6        OSM      C17S     CTL2    -0.180000       12.0110           0
     10130 MEMB     6        OSM      H17S     HAL2     0.900000E-01   1.00800           0
     10131 MEMB     6        OSM      H17T     HAL2     0.900000E-01   1.00800           0
     10132 MEMB     6        OSM      C18S     CTL3    -0.270000       12.0110           0
     10133 MEMB     6        OSM      H18S     HAL3     0.900000E-01   1.00800           0
     10134 MEMB     6        OSM      H18T     HAL3     0.900000E-01   1.00800           0
     10135 MEMB     6        OSM      H18U     HAL3     0.900000E-01   1.00800           0
     10136 MEMB     6        OSM      C1F      C        0.550000       12.0110           0
     10137 MEMB     6        OSM      OF       O       -0.600000       15.9994           0
     10138 MEMB     6        OSM      C2F      CTL2    -0.700000E-01   12.0110           0
     10139 MEMB     6        OSM      H2F      HAL2     0.600000E-01   1.00800           0
     10140 MEMB     6        OSM      H2G      HAL2     0.600000E-01   1.00800           0
     10141 MEMB     6        OSM      C3F      CTL2    -0.180000       12.0110           0
     10142 MEMB     6        OSM      H3F      HAL2     0.900000E-01   1.00800           0
     10143 MEMB     6        OSM      H3G      HAL2     0.900000E-01   1.00800           0
     10144 MEMB     6        OSM      C4F      CTL2    -0.180000       12.0110           0
     10145 MEMB     6        OSM      H4F      HAL2     0.900000E-01   1.00800           0
     10146 MEMB     6        OSM      H4G      HAL2     0.900000E-01   1.00800           0
     10147 MEMB     6        OSM      C5F      CTL2    -0.180000       12.0110           0
     10148 MEMB     6        OSM      H5F      HAL2     0.900000E-01   1.00800           0
     10149 MEMB     6        OSM      H5G      HAL2     0.900000E-01   1.00800           0
     10150 MEMB     6        OSM      C6F      CTL2    -0.180000       12.0110           0
     10151 MEMB     6        OSM      H6F      HAL2     0.900000E-01   1.00800           0
     10152 MEMB     6        OSM      H6G      HAL2     0.900000E-01   1.00800           0
     10153 MEMB     6        OSM      C7F      CTL2    -0.180000       12.0110           0
     10154 MEMB     6        OSM      H7F      HAL2     0.900000E-01   1.00800           0
     10155 MEMB     6        OSM      H7G      HAL2     0.900000E-01   1.00800           0
     10156 MEMB     6        OSM      C8F      CTL2    -0.180000       12.0110           0
     10157 MEMB     6        OSM      H8F      HAL2     0.900000E-01   1.00800           0
     10158 MEMB     6        OSM      H8G      HAL2     0.900000E-01   1.00800           0
     10159 MEMB     6        OSM      C9F      CEL1    -0.150000       12.0110           0
     10160 MEMB     6        OSM      H9F      HEL1     0.150000       1.00800           0
     10161 MEMB     6        OSM      C10F     CEL1    -0.150000       12.0110           0
     10162 MEMB     6        OSM      H10F     HEL1     0.150000       1.00800           0
     10163 MEMB     6        OSM      C11F     CTL2    -0.180000       12.0110           0
     10164 MEMB     6        OSM      H11F     HAL2     0.900000E-01   1.00800           0
     10165 MEMB     6        OSM      H11G     HAL2     0.900000E-01   1.00800           0
     10166 MEMB     6        OSM      C12F     CTL2    -0.180000       12.0110           0
     10167 MEMB     6        OSM      H12F     HAL2     0.900000E-01   1.00800           0
     10168 MEMB     6        OSM      H12G     HAL2     0.900000E-01   1.00800           0
     10169 MEMB     6        OSM      C13F     CTL2    -0.180000       12.0110           0
     10170 MEMB     6        OSM      H13F     HAL2     0.900000E-01   1.00800           0
     10171 MEMB     6        OSM      H13G     HAL2     0.900000E-01   1.00800           0
     10172 MEMB     6        OSM      C14F     CTL2    -0.180000       12.0110           0
     10173 MEMB     6        OSM      H14F     HAL2     0.900000E-01   1.00800           0
     10174 MEMB     6        OSM      H14G     HAL2     0.900000E-01   1.00800           0
     10175 MEMB     6        OSM      C15F     CTL2    -0.180000       12.0110           0
     10176 MEMB     6        OSM      H15F     HAL2     0.900000E-01   1.00800           0
     10177 MEMB     6        OSM      H15G     HAL2     0.900000E-01   1.00800           0
     10178 MEMB     6        OSM      C16F     CTL2    -0.180000       12.0110           0
     10179 MEMB     6        OSM      H16F     HAL2     0.900000E-01   1.00800           0
     10180 MEMB     6        OSM      H16G     HAL2     0.900000E-01   1.00800           0
     10181 MEMB     6        OSM      C17F     CTL2    -0.180000       12.0110           0
     10182 MEMB     6        OSM      H17F     HAL2     0.900000E-01   1.00800           0
     10183 MEMB     6        OSM      H17G     HAL2     0.900000E-01   1.00800           0
     10184 MEMB     6        OSM      C18F     CTL3    -0.270000       12.0110           0
     10185 MEMB     6        OSM      H18F     HAL3     0.900000E-01   1.00800           0
     10186 MEMB     6        OSM      H18G     HAL3     0.900000E-01   1.00800           0
     10187 MEMB     6        OSM      H18H     HAL3     0.900000E-01   1.00800           0
     10188 MEMB     9        OSM      N        NTL     -0.600000       14.0070           0
     10189 MEMB     9        OSM      C15      CTL5    -0.350000       12.0110           0
     10190 MEMB     9        OSM      H15A     HL       0.250000       1.00800           0
     10191 MEMB     9        OSM      H15B     HL       0.250000       1.00800           0
     10192 MEMB     9        OSM      H15C     HL       0.250000       1.00800           0
     10193 MEMB     9        OSM      C14      CTL5    -0.350000       12.0110           0
     10194 MEMB     9        OSM      H14A     HL       0.250000       1.00800           0
     10195 MEMB     9        OSM      H14B     HL       0.250000       1.00800           0
     10196 MEMB     9        OSM      H14C     HL       0.250000       1.00800           0
     10197 MEMB     9        OSM      C13      CTL5    -0.350000       12.0110           0
     10198 MEMB     9        OSM      H13A     HL       0.250000       1.00800           0
     10199 MEMB     9        OSM      H13B     HL       0.250000       1.00800           0
     10200 MEMB     9        OSM      H13C     HL       0.250000       1.00800           0
     10201 MEMB     9        OSM      C12      CTL2    -0.100000       12.0110           0
     10202 MEMB     9        OSM      H12A     HL       0.250000       1.00800           0
     10203 MEMB     9        OSM      H12B     HL       0.250000       1.00800           0
     10204 MEMB     9        OSM      C11      CTL2    -0.800000E-01   12.0110           0
     10205 MEMB     9        OSM      H11A     HAL2     0.900000E-01   1.00800           0
     10206 MEMB     9        OSM      H11B     HAL2     0.900000E-01   1.00800           0
     10207 MEMB     9        OSM      P        PL       1.500000       30.9740           0
     10208 MEMB     9        OSM      O13      O2L     -0.780000       15.9994           0
     10209 MEMB     9        OSM      O14      O2L     -0.780000       15.9994           0
     10210 MEMB     9        OSM      O11      OSLP    -0.570000       15.9994           0
     10211 MEMB     9        OSM      O12      OSLP    -0.570000       15.9994           0
     10212 MEMB     9        OSM      C1S      CTL2    -0.800000E-01   12.0110           0
     10213 MEMB     9        OSM      H1S      HAL2     0.900000E-01   1.00800           0
     10214 MEMB     9        OSM      H1T      HAL2     0.900000E-01   1.00800           0
     10215 MEMB     9        OSM      NF       NHL     -0.700000       14.0070           0
     10216 MEMB     9        OSM      HNF      H        0.350000       1.00800           0
     10217 MEMB     9        OSM      C2S      CTL1     0.300000       12.0110           0
     10218 MEMB     9        OSM      H2S      HAL1     0.500000E-01   1.00800           0
     10219 MEMB     9        OSM      C3S      CTO1     0.500000       12.0110           0
     10220 MEMB     9        OSM      H3S      HAL1    -0.110000       1.00800           0
     10221 MEMB     9        OSM      O3       OHL     -0.690000       15.9994           0
     10222 MEMB     9        OSM      HO3      HOL      0.300000       1.00800           0
     10223 MEMB     9        OSM      C4S      CEL3    -0.150000       12.0110           0
     10224 MEMB     9        OSM      H4S      HEL1     0.150000       1.00800           0
     10225 MEMB     9        OSM      C5S      CEL3    -0.150000       12.0110           0
     10226 MEMB     9        OSM      H5S      HEL1     0.150000       1.00800           0
     10227 MEMB     9        OSM      C6S      CTL2    -0.180000       12.0110           0
     10228 MEMB     9        OSM      H6S      HAL2     0.900000E-01   1.00800           0
     10229 MEMB     9        OSM      H6T      HAL2     0.900000E-01   1.00800           0
     10230 MEMB     9        OSM      C7S      CTL2    -0.180000       12.0110           0
     10231 MEMB     9        OSM      H7S      HAL2     0.900000E-01   1.00800           0
     10232 MEMB     9        OSM      H7T      HAL2     0.900000E-01   1.00800           0
     10233 MEMB     9        OSM      C8S      CTL2    -0.180000       12.0110           0
     10234 MEMB     9        OSM      H8S      HAL2     0.900000E-01   1.00800           0
     10235 MEMB     9        OSM      H8T      HAL2     0.900000E-01   1.00800           0
     10236 MEMB     9        OSM      C9S      CTL2    -0.180000       12.0110           0
     10237 MEMB     9        OSM      H9S      HAL2     0.900000E-01   1.00800           0
     10238 MEMB     9        OSM      H9T      HAL2     0.900000E-01   1.00800           0
     10239 MEMB     9        OSM      C10S     CTL2    -0.180000       12.0110           0
     10240 MEMB     9        OSM      H10S     HAL2     0.900000E-01   1.00800           0
     10241 MEMB     9        OSM      H10T     HAL2     0.900000E-01   1.00800           0
     10242 MEMB     9        OSM      C11S     CTL2    -0.180000       12.0110           0
     10243 MEMB     9        OSM      H11S     HAL2     0.900000E-01   1.00800           0
     10244 MEMB     9        OSM      H11T     HAL2     0.900000E-01   1.00800           0
     10245 MEMB     9        OSM      C12S     CTL2    -0.180000       12.0110           0
     10246 MEMB     9        OSM      H12S     HAL2     0.900000E-01   1.00800           0
     10247 MEMB     9        OSM      H12T     HAL2     0.900000E-01   1.00800           0
     10248 MEMB     9        OSM      C13S     CTL2    -0.180000       12.0110           0
     10249 MEMB     9        OSM      H13S     HAL2     0.900000E-01   1.00800           0
     10250 MEMB     9        OSM      H13T     HAL2     0.900000E-01   1.00800           0
     10251 MEMB     9        OSM      C14S     CTL2    -0.180000       12.0110           0
     10252 MEMB     9        OSM      H14S     HAL2     0.900000E-01   1.00800           0
     10253 MEMB     9        OSM      H14T     HAL2     0.900000E-01   1.00800           0
     10254 MEMB     9        OSM      C15S     CTL2    -0.180000       12.0110           0
     10255 MEMB     9        OSM      H15S     HAL2     0.900000E-01   1.00800           0
     10256 MEMB     9        OSM      H15T     HAL2     0.900000E-01   1.00800           0
     10257 MEMB     9        OSM      C16S     CTL2    -0.180000       12.0110           0
     10258 MEMB     9        OSM      H16S     HAL2     0.900000E-01   1.00800           0
     10259 MEMB     9        OSM      H16T     HAL2     0.900000E-01   1.00800           0
     10260 MEMB     9        OSM      C17S     CTL2    -0.180000       12.0110           0
     10261 MEMB     9        OSM      H17S     HAL2     0.900000E-01   1.00800           0
     10262 MEMB     9        OSM      H17T     HAL2     0.900000E-01   1.00800           0
     10263 MEMB     9        OSM      C18S     CTL3    -0.270000       12.0110           0
     10264 MEMB     9        OSM      H18S     HAL3     0.900000E-01   1.00800           0
     10265 MEMB     9        OSM      H18T     HAL3     0.900000E-01   1.00800           0
     10266 MEMB     9        OSM      H18U     HAL3     0.900000E-01   1.00800           0
     10267 MEMB     9        OSM      C1F      C        0.550000       12.0110           0
     10268 MEMB     9        OSM      OF       O       -0.600000       15.9994           0
     10269 MEMB     9        OSM      C2F      CTL2    -0.700000E-01   12.0110           0
     10270 MEMB     9        OSM      H2F      HAL2     0.600000E-01   1.00800           0
     10271 MEMB     9        OSM      H2G      HAL2     0.600000E-01   1.00800           0
     10272 MEMB     9        OSM      C3F      CTL2    -0.180000       12.0110           0
     10273 MEMB     9        OSM      H3F      HAL2     0.900000E-01   1.00800           0
     10274 MEMB     9        OSM      H3G      HAL2     0.900000E-01   1.00800           0
     10275 MEMB     9        OSM      C4F      CTL2    -0.180000       12.0110           0
     10276 MEMB     9        OSM      H4F      HAL2     0.900000E-01   1.00800           0
     10277 MEMB     9        OSM      H4G      HAL2     0.900000E-01   1.00800           0
     10278 MEMB     9        OSM      C5F      CTL2    -0.180000       12.0110           0
     10279 MEMB     9        OSM      H5F      HAL2     0.900000E-01   1.00800           0
     10280 MEMB     9        OSM      H5G      HAL2     0.900000E-01   1.00800           0
     10281 MEMB     9        OSM      C6F      CTL2    -0.180000       12.0110           0
     10282 MEMB     9        OSM      H6F      HAL2     0.900000E-01   1.00800           0
     10283 MEMB     9        OSM      H6G      HAL2     0.900000E-01   1.00800           0
     10284 MEMB     9        OSM      C7F      CTL2    -0.180000       12.0110           0
     10285 MEMB     9        OSM      H7F      HAL2     0.900000E-01   1.00800           0
     10286 MEMB     9        OSM      H7G      HAL2     0.900000E-01   1.00800           0
     10287 MEMB     9        OSM      C8F      CTL2    -0.180000       12.0110           0
     10288 MEMB     9        OSM      H8F      HAL2     0.900000E-01   1.00800           0
     10289 MEMB     9        OSM      H8G      HAL2     0.900000E-01   1.00800           0
     10290 MEMB     9        OSM      C9F      CEL1    -0.150000       12.0110           0
     10291 MEMB     9        OSM      H9F      HEL1     0.150000       1.00800           0
     10292 MEMB     9        OSM      C10F     CEL1    -0.150000       12.0110           0
     10293 MEMB     9        OSM      H10F     HEL1     0.150000       1.00800           0
     10294 MEMB     9        OSM      C11F     CTL2    -0.180000       12.0110           0
     10295 MEMB     9        OSM      H11F     HAL2     0.900000E-01   1.00800           0
     10296 MEMB     9        OSM      H11G     HAL2     0.900000E-01   1.00800           0
     10297 MEMB     9        OSM      C12F     CTL2    -0.180000       12.0110           0
     10298 MEMB     9        OSM      H12F     HAL2     0.900000E-01   1.00800           0
     10299 MEMB     9        OSM      H12G     HAL2     0.900000E-01   1.00800           0
     10300 MEMB     9        OSM      C13F     CTL2    -0.180000       12.0110           0
     10301 MEMB     9        OSM      H13F     HAL2     0.900000E-01   1.00800           0
     10302 MEMB     9        OSM      H13G     HAL2     0.900000E-01   1.00800           0
     10303 MEMB     9        OSM      C14F     CTL2    -0.180000       12.0110           0
     10304 MEMB     9        OSM      H14F     HAL2     0.900000E-01   1.00800           0
     10305 MEMB     9        OSM      H14G     HAL2     0.900000E-01   1.00800           0
     10306 MEMB     9        OSM      C15F     CTL2    -0.180000       12.0110           0
     10307 MEMB     9        OSM      H15F     HAL2     0.900000E-01   1.00800           0
     10308 MEMB     9        OSM      H15G     HAL2     0.900000E-01   1.00800           0
     10309 MEMB     9        OSM      C16F     CTL2    -0.180000       12.0110           0
     10310 MEMB     9        OSM      H16F     HAL2     0.900000E-01   1.00800           0
     10311 MEMB     9        OSM      H16G     HAL2     0.900000E-01   1.00800           0
     10312 MEMB     9        OSM      C17F     CTL2    -0.180000       12.0110           0
     10313 MEMB     9        OSM      H17F     HAL2     0.900000E-01   1.00800           0
     10314 MEMB     9        OSM      H17G     HAL2     0.900000E-01   1.00800           0
     10315 MEMB     9        OSM      C18F     CTL3    -0.270000       12.0110           0
     10316 MEMB     9        OSM      H18F     HAL3     0.900000E-01   1.00800           0
     10317 MEMB     9        OSM      H18G     HAL3     0.900000E-01   1.00800           0
     10318 MEMB     9        OSM      H18H     HAL3     0.900000E-01   1.00800           0
     10319 MEMB     11       OSM      N        NTL     -0.600000       14.0070           0
     10320 MEMB     11       OSM      C15      CTL5    -0.350000       12.0110           0
     10321 MEMB     11       OSM      H15A     HL       0.250000       1.00800           0
     10322 MEMB     11       OSM      H15B     HL       0.250000       1.00800           0
     10323 MEMB     11       OSM      H15C     HL       0.250000       1.00800           0
     10324 MEMB     11       OSM      C14      CTL5    -0.350000       12.0110           0
     10325 MEMB     11       OSM      H14A     HL       0.250000       1.00800           0
     10326 MEMB     11       OSM      H14B     HL       0.250000       1.00800           0
     10327 MEMB     11       OSM      H14C     HL       0.250000       1.00800           0
     10328 MEMB     11       OSM      C13      CTL5    -0.350000       12.0110           0
     10329 MEMB     11       OSM      H13A     HL       0.250000       1.00800           0
     10330 MEMB     11       OSM      H13B     HL       0.250000       1.00800           0
     10331 MEMB     11       OSM      H13C     HL       0.250000       1.00800           0
     10332 MEMB     11       OSM      C12      CTL2    -0.100000       12.0110           0
     10333 MEMB     11       OSM      H12A     HL       0.250000       1.00800           0
     10334 MEMB     11       OSM      H12B     HL       0.250000       1.00800           0
     10335 MEMB     11       OSM      C11      CTL2    -0.800000E-01   12.0110           0
     10336 MEMB     11       OSM      H11A     HAL2     0.900000E-01   1.00800           0
     10337 MEMB     11       OSM      H11B     HAL2     0.900000E-01   1.00800           0
     10338 MEMB     11       OSM      P        PL       1.500000       30.9740           0
     10339 MEMB     11       OSM      O13      O2L     -0.780000       15.9994           0
     10340 MEMB     11       OSM      O14      O2L     -0.780000       15.9994           0
     10341 MEMB     11       OSM      O11      OSLP    -0.570000       15.9994           0
     10342 MEMB     11       OSM      O12      OSLP    -0.570000       15.9994           0
     10343 MEMB     11       OSM      C1S      CTL2    -0.800000E-01   12.0110           0
     10344 MEMB     11       OSM      H1S      HAL2     0.900000E-01   1.00800           0
     10345 MEMB     11       OSM      H1T      HAL2     0.900000E-01   1.00800           0
     10346 MEMB     11       OSM      NF       NHL     -0.700000       14.0070           0
     10347 MEMB     11       OSM      HNF      H        0.350000       1.00800           0
     10348 MEMB     11       OSM      C2S      CTL1     0.300000       12.0110           0
     10349 MEMB     11       OSM      H2S      HAL1     0.500000E-01   1.00800           0
     10350 MEMB     11       OSM      C3S      CTO1     0.500000       12.0110           0
     10351 MEMB     11       OSM      H3S      HAL1    -0.110000       1.00800           0
     10352 MEMB     11       OSM      O3       OHL     -0.690000       15.9994           0
     10353 MEMB     11       OSM      HO3      HOL      0.300000       1.00800           0
     10354 MEMB     11       OSM      C4S      CEL3    -0.150000       12.0110           0
     10355 MEMB     11       OSM      H4S      HEL1     0.150000       1.00800           0
     10356 MEMB     11       OSM      C5S      CEL3    -0.150000       12.0110           0
     10357 MEMB     11       OSM      H5S      HEL1     0.150000       1.00800           0
     10358 MEMB     11       OSM      C6S      CTL2    -0.180000       12.0110           0
     10359 MEMB     11       OSM      H6S      HAL2     0.900000E-01   1.00800           0
     10360 MEMB     11       OSM      H6T      HAL2     0.900000E-01   1.00800           0
     10361 MEMB     11       OSM      C7S      CTL2    -0.180000       12.0110           0
     10362 MEMB     11       OSM      H7S      HAL2     0.900000E-01   1.00800           0
     10363 MEMB     11       OSM      H7T      HAL2     0.900000E-01   1.00800           0
     10364 MEMB     11       OSM      C8S      CTL2    -0.180000       12.0110           0
     10365 MEMB     11       OSM      H8S      HAL2     0.900000E-01   1.00800           0
     10366 MEMB     11       OSM      H8T      HAL2     0.900000E-01   1.00800           0
     10367 MEMB     11       OSM      C9S      CTL2    -0.180000       12.0110           0
     10368 MEMB     11       OSM      H9S      HAL2     0.900000E-01   1.00800           0
     10369 MEMB     11       OSM      H9T      HAL2     0.900000E-01   1.00800           0
     10370 MEMB     11       OSM      C10S     CTL2    -0.180000       12.0110           0
     10371 MEMB     11       OSM      H10S     HAL2     0.900000E-01   1.00800           0
     10372 MEMB     11       OSM      H10T     HAL2     0.900000E-01   1.00800           0
     10373 MEMB     11       OSM      C11S     CTL2    -0.180000       12.0110           0
     10374 MEMB     11       OSM      H11S     HAL2     0.900000E-01   1.00800           0
     10375 MEMB     11       OSM      H11T     HAL2     0.900000E-01   1.00800           0
     10376 MEMB     11       OSM      C12S     CTL2    -0.180000       12.0110           0
     10377 MEMB     11       OSM      H12S     HAL2     0.900000E-01   1.00800           0
     10378 MEMB     11       OSM      H12T     HAL2     0.900000E-01   1.00800           0
     10379 MEMB     11       OSM      C13S     CTL2    -0.180000       12.0110           0
     10380 MEMB     11       OSM      H13S     HAL2     0.900000E-01   1.00800           0
     10381 MEMB     11       OSM      H13T     HAL2     0.900000E-01   1.00800           0
     10382 MEMB     11       OSM      C14S     CTL2    -0.180000       12.0110           0
     10383 MEMB     11       OSM      H14S     HAL2     0.900000E-01   1.00800           0
     10384 MEMB     11       OSM      H14T     HAL2     0.900000E-01   1.00800           0
     10385 MEMB     11       OSM      C15S     CTL2    -0.180000       12.0110           0
     10386 MEMB     11       OSM      H15S     HAL2     0.900000E-01   1.00800           0
     10387 MEMB     11       OSM      H15T     HAL2     0.900000E-01   1.00800           0
     10388 MEMB     11       OSM      C16S     CTL2    -0.180000       12.0110           0
     10389 MEMB     11       OSM      H16S     HAL2     0.900000E-01   1.00800           0
     10390 MEMB     11       OSM      H16T     HAL2     0.900000E-01   1.00800           0
     10391 MEMB     11       OSM      C17S     CTL2    -0.180000       12.0110           0
     10392 MEMB     11       OSM      H17S     HAL2     0.900000E-01   1.00800           0
     10393 MEMB     11       OSM      H17T     HAL2     0.900000E-01   1.00800           0
     10394 MEMB     11       OSM      C18S     CTL3    -0.270000       12.0110           0
     10395 MEMB     11       OSM      H18S     HAL3     0.900000E-01   1.00800           0
     10396 MEMB     11       OSM      H18T     HAL3     0.900000E-01   1.00800           0
     10397 MEMB     11       OSM      H18U     HAL3     0.900000E-01   1.00800           0
     10398 MEMB     11       OSM      C1F      C        0.550000       12.0110           0
     10399 MEMB     11       OSM      OF       O       -0.600000       15.9994           0
     10400 MEMB     11       OSM      C2F      CTL2    -0.700000E-01   12.0110           0
     10401 MEMB     11       OSM      H2F      HAL2     0.600000E-01   1.00800           0
     10402 MEMB     11       OSM      H2G      HAL2     0.600000E-01   1.00800           0
     10403 MEMB     11       OSM      C3F      CTL2    -0.180000       12.0110           0
     10404 MEMB     11       OSM      H3F      HAL2     0.900000E-01   1.00800           0
     10405 MEMB     11       OSM      H3G      HAL2     0.900000E-01   1.00800           0
     10406 MEMB     11       OSM      C4F      CTL2    -0.180000       12.0110           0
     10407 MEMB     11       OSM      H4F      HAL2     0.900000E-01   1.00800           0
     10408 MEMB     11       OSM      H4G      HAL2     0.900000E-01   1.00800           0
     10409 MEMB     11       OSM      C5F      CTL2    -0.180000       12.0110           0
     10410 MEMB     11       OSM      H5F      HAL2     0.900000E-01   1.00800           0
     10411 MEMB     11       OSM      H5G      HAL2     0.900000E-01   1.00800           0
     10412 MEMB     11       OSM      C6F      CTL2    -0.180000       12.0110           0
     10413 MEMB     11       OSM      H6F      HAL2     0.900000E-01   1.00800           0
     10414 MEMB     11       OSM      H6G      HAL2     0.900000E-01   1.00800           0
     10415 MEMB     11       OSM      C7F      CTL2    -0.180000       12.0110           0
     10416 MEMB     11       OSM      H7F      HAL2     0.900000E-01   1.00800           0
     10417 MEMB     11       OSM      H7G      HAL2     0.900000E-01   1.00800           0
     10418 MEMB     11       OSM      C8F      CTL2    -0.180000       12.0110           0
     10419 MEMB     11       OSM      H8F      HAL2     0.900000E-01   1.00800           0
     10420 MEMB     11       OSM      H8G      HAL2     0.900000E-01   1.00800           0
     10421 MEMB     11       OSM      C9F      CEL1    -0.150000       12.0110           0
     10422 MEMB     11       OSM      H9F      HEL1     0.150000       1.00800           0
     10423 MEMB     11       OSM      C10F     CEL1    -0.150000       12.0110           0
     10424 MEMB     11       OSM      H10F     HEL1     0.150000       1.00800           0
     10425 MEMB     11       OSM      C11F     CTL2    -0.180000       12.0110           0
     10426 MEMB     11       OSM      H11F     HAL2     0.900000E-01   1.00800           0
     10427 MEMB     11       OSM      H11G     HAL2     0.900000E-01   1.00800           0
     10428 MEMB     11       OSM      C12F     CTL2    -0.180000       12.0110           0
     10429 MEMB     11       OSM      H12F     HAL2     0.900000E-01   1.00800           0
     10430 MEMB     11       OSM      H12G     HAL2     0.900000E-01   1.00800           0
     10431 MEMB     11       OSM      C13F     CTL2    -0.180000       12.0110           0
     10432 MEMB     11       OSM      H13F     HAL2     0.900000E-01   1.00800           0
     10433 MEMB     11       OSM      H13G     HAL2     0.900000E-01   1.00800           0
     10434 MEMB     11       OSM      C14F     CTL2    -0.180000       12.0110           0
     10435 MEMB     11       OSM      H14F     HAL2     0.900000E-01   1.00800           0
     10436 MEMB     11       OSM      H14G     HAL2     0.900000E-01   1.00800           0
     10437 MEMB     11       OSM      C15F     CTL2    -0.180000       12.0110           0
     10438 MEMB     11       OSM      H15F     HAL2     0.900000E-01   1.00800           0
     10439 MEMB     11       OSM      H15G     HAL2     0.900000E-01   1.00800           0
     10440 MEMB     11       OSM      C16F     CTL2    -0.180000       12.0110           0
     10441 MEMB     11       OSM      H16F     HAL2     0.900000E-01   1.00800           0
     10442 MEMB     11       OSM      H16G     HAL2     0.900000E-01   1.00800           0
     10443 MEMB     11       OSM      C17F     CTL2    -0.180000       12.0110           0
     10444 MEMB     11       OSM      H17F     HAL2     0.900000E-01   1.00800           0
     10445 MEMB     11       OSM      H17G     HAL2     0.900000E-01   1.00800           0
     10446 MEMB     11       OSM      C18F     CTL3    -0.270000       12.0110           0
     10447 MEMB     11       OSM      H18F     HAL3     0.900000E-01   1.00800           0
     10448 MEMB     11       OSM      H18G     HAL3     0.900000E-01   1.00800           0
     10449 MEMB     11       OSM      H18H     HAL3     0.900000E-01   1.00800           0
     10450 MEMB     15       OSM      N        NTL     -0.600000       14.0070           0
     10451 MEMB     15       OSM      C15      CTL5    -0.350000       12.0110           0
     10452 MEMB     15       OSM      H15A     HL       0.250000       1.00800           0
     10453 MEMB     15       OSM      H15B     HL       0.250000       1.00800           0
     10454 MEMB     15       OSM      H15C     HL       0.250000       1.00800           0
     10455 MEMB     15       OSM      C14      CTL5    -0.350000       12.0110           0
     10456 MEMB     15       OSM      H14A     HL       0.250000       1.00800           0
     10457 MEMB     15       OSM      H14B     HL       0.250000       1.00800           0
     10458 MEMB     15       OSM      H14C     HL       0.250000       1.00800           0
     10459 MEMB     15       OSM      C13      CTL5    -0.350000       12.0110           0
     10460 MEMB     15       OSM      H13A     HL       0.250000       1.00800           0
     10461 MEMB     15       OSM      H13B     HL       0.250000       1.00800           0
     10462 MEMB     15       OSM      H13C     HL       0.250000       1.00800           0
     10463 MEMB     15       OSM      C12      CTL2    -0.100000       12.0110           0
     10464 MEMB     15       OSM      H12A     HL       0.250000       1.00800           0
     10465 MEMB     15       OSM      H12B     HL       0.250000       1.00800           0
     10466 MEMB     15       OSM      C11      CTL2    -0.800000E-01   12.0110           0
     10467 MEMB     15       OSM      H11A     HAL2     0.900000E-01   1.00800           0
     10468 MEMB     15       OSM      H11B     HAL2     0.900000E-01   1.00800           0
     10469 MEMB     15       OSM      P        PL       1.500000       30.9740           0
     10470 MEMB     15       OSM      O13      O2L     -0.780000       15.9994           0
     10471 MEMB     15       OSM      O14      O2L     -0.780000       15.9994           0
     10472 MEMB     15       OSM      O11      OSLP    -0.570000       15.9994           0
     10473 MEMB     15       OSM      O12      OSLP    -0.570000       15.9994           0
     10474 MEMB     15       OSM      C1S      CTL2    -0.800000E-01   12.0110           0
     10475 MEMB     15       OSM      H1S      HAL2     0.900000E-01   1.00800           0
     10476 MEMB     15       OSM      H1T      HAL2     0.900000E-01   1.00800           0
     10477 MEMB     15       OSM      NF       NHL     -0.700000       14.0070           0
     10478 MEMB     15       OSM      HNF      H        0.350000       1.00800           0
     10479 MEMB     15       OSM      C2S      CTL1     0.300000       12.0110           0
     10480 MEMB     15       OSM      H2S      HAL1     0.500000E-01   1.00800           0
     10481 MEMB     15       OSM      C3S      CTO1     0.500000       12.0110           0
     10482 MEMB     15       OSM      H3S      HAL1    -0.110000       1.00800           0
     10483 MEMB     15       OSM      O3       OHL     -0.690000       15.9994           0
     10484 MEMB     15       OSM      HO3      HOL      0.300000       1.00800           0
     10485 MEMB     15       OSM      C4S      CEL3    -0.150000       12.0110           0
     10486 MEMB     15       OSM      H4S      HEL1     0.150000       1.00800           0
     10487 MEMB     15       OSM      C5S      CEL3    -0.150000       12.0110           0
     10488 MEMB     15       OSM      H5S      HEL1     0.150000       1.00800           0
     10489 MEMB     15       OSM      C6S      CTL2    -0.180000       12.0110           0
     10490 MEMB     15       OSM      H6S      HAL2     0.900000E-01   1.00800           0
     10491 MEMB     15       OSM      H6T      HAL2     0.900000E-01   1.00800           0
     10492 MEMB     15       OSM      C7S      CTL2    -0.180000       12.0110           0
     10493 MEMB     15       OSM      H7S      HAL2     0.900000E-01   1.00800           0
     10494 MEMB     15       OSM      H7T      HAL2     0.900000E-01   1.00800           0
     10495 MEMB     15       OSM      C8S      CTL2    -0.180000       12.0110           0
     10496 MEMB     15       OSM      H8S      HAL2     0.900000E-01   1.00800           0
     10497 MEMB     15       OSM      H8T      HAL2     0.900000E-01   1.00800           0
     10498 MEMB     15       OSM      C9S      CTL2    -0.180000       12.0110           0
     10499 MEMB     15       OSM      H9S      HAL2     0.900000E-01   1.00800           0
     10500 MEMB     15       OSM      H9T      HAL2     0.900000E-01   1.00800           0
     10501 MEMB     15       OSM      C10S     CTL2    -0.180000       12.0110           0
     10502 MEMB     15       OSM      H10S     HAL2     0.900000E-01   1.00800           0
     10503 MEMB     15       OSM      H10T     HAL2     0.900000E-01   1.00800           0
     10504 MEMB     15       OSM      C11S     CTL2    -0.180000       12.0110           0
     10505 MEMB     15       OSM      H11S     HAL2     0.900000E-01   1.00800           0
     10506 MEMB     15       OSM      H11T     HAL2     0.900000E-01   1.00800           0
     10507 MEMB     15       OSM      C12S     CTL2    -0.180000       12.0110           0
     10508 MEMB     15       OSM      H12S     HAL2     0.900000E-01   1.00800           0
     10509 MEMB     15       OSM      H12T     HAL2     0.900000E-01   1.00800           0
     10510 MEMB     15       OSM      C13S     CTL2    -0.180000       12.0110           0
     10511 MEMB     15       OSM      H13S     HAL2     0.900000E-01   1.00800           0
     10512 MEMB     15       OSM      H13T     HAL2     0.900000E-01   1.00800           0
     10513 MEMB     15       OSM      C14S     CTL2    -0.180000       12.0110           0
     10514 MEMB     15       OSM      H14S     HAL2     0.900000E-01   1.00800           0
     10515 MEMB     15       OSM      H14T     HAL2     0.900000E-01   1.00800           0
     10516 MEMB     15       OSM      C15S     CTL2    -0.180000       12.0110           0
     10517 MEMB     15       OSM      H15S     HAL2     0.900000E-01   1.00800           0
     10518 MEMB     15       OSM      H15T     HAL2     0.900000E-01   1.00800           0
     10519 MEMB     15       OSM      C16S     CTL2    -0.180000       12.0110           0
     10520 MEMB     15       OSM      H16S     HAL2     0.900000E-01   1.00800           0
     10521 MEMB     15       OSM      H16T     HAL2     0.900000E-01   1.00800           0
     10522 MEMB     15       OSM      C17S     CTL2    -0.180000       12.0110           0
     10523 MEMB     15       OSM      H17S     HAL2     0.900000E-01   1.00800           0
     10524 MEMB     15       OSM      H17T     HAL2     0.900000E-01   1.00800           0
     10525 MEMB     15       OSM      C18S     CTL3    -0.270000       12.0110           0
     10526 MEMB     15       OSM      H18S     HAL3     0.900000E-01   1.00800           0
     10527 MEMB     15       OSM      H18T     HAL3     0.900000E-01   1.00800           0
     10528 MEMB     15       OSM      H18U     HAL3     0.900000E-01   1.00800           0
     10529 MEMB     15       OSM      C1F      C        0.550000       12.0110           0
     10530 MEMB     15       OSM      OF       O       -0.600000       15.9994           0
     10531 MEMB     15       OSM      C2F      CTL2    -0.700000E-01   12.0110           0
     10532 MEMB     15       OSM      H2F      HAL2     0.600000E-01   1.00800           0
     10533 MEMB     15       OSM      H2G      HAL2     0.600000E-01   1.00800           0
     10534 MEMB     15       OSM      C3F      CTL2    -0.180000       12.0110           0
     10535 MEMB     15       OSM      H3F      HAL2     0.900000E-01   1.00800           0
     10536 MEMB     15       OSM      H3G      HAL2     0.900000E-01   1.00800           0
     10537 MEMB     15       OSM      C4F      CTL2    -0.180000       12.0110           0
     10538 MEMB     15       OSM      H4F      HAL2     0.900000E-01   1.00800           0
     10539 MEMB     15       OSM      H4G      HAL2     0.900000E-01   1.00800           0
     10540 MEMB     15       OSM      C5F      CTL2    -0.180000       12.0110           0
     10541 MEMB     15       OSM      H5F      HAL2     0.900000E-01   1.00800           0
     10542 MEMB     15       OSM      H5G      HAL2     0.900000E-01   1.00800           0
     10543 MEMB     15       OSM      C6F      CTL2    -0.180000       12.0110           0
     10544 MEMB     15       OSM      H6F      HAL2     0.900000E-01   1.00800           0
     10545 MEMB     15       OSM      H6G      HAL2     0.900000E-01   1.00800           0
     10546 MEMB     15       OSM      C7F      CTL2    -0.180000       12.0110           0
     10547 MEMB     15       OSM      H7F      HAL2     0.900000E-01   1.00800           0
     10548 MEMB     15       OSM      H7G      HAL2     0.900000E-01   1.00800           0
     10549 MEMB     15       OSM      C8F      CTL2    -0.180000       12.0110           0
     10550 MEMB     15       OSM      H8F      HAL2     0.900000E-01   1.00800           0
     10551 MEMB     15       OSM      H8G      HAL2     0.900000E-01   1.00800           0
     10552 MEMB     15       OSM      C9F      CEL1    -0.150000       12.0110           0
     10553 MEMB     15       OSM      H9F      HEL1     0.150000       1.00800           0
     10554 MEMB     15       OSM      C10F     CEL1    -0.150000       12.0110           0
     10555 MEMB     15       OSM      H10F     HEL1     0.150000       1.00800           0
     10556 MEMB     15       OSM      C11F     CTL2    -0.180000       12.0110           0
     10557 MEMB     15       OSM      H11F     HAL2     0.900000E-01   1.00800           0
     10558 MEMB     15       OSM      H11G     HAL2     0.900000E-01   1.00800           0
     10559 MEMB     15       OSM      C12F     CTL2    -0.180000       12.0110           0
     10560 MEMB     15       OSM      H12F     HAL2     0.900000E-01   1.00800           0
     10561 MEMB     15       OSM      H12G     HAL2     0.900000E-01   1.00800           0
     10562 MEMB     15       OSM      C13F     CTL2    -0.180000       12.0110           0
     10563 MEMB     15       OSM      H13F     HAL2     0.900000E-01   1.00800           0
     10564 MEMB     15       OSM      H13G     HAL2     0.900000E-01   1.00800           0
     10565 MEMB     15       OSM      C14F     CTL2    -0.180000       12.0110           0
     10566 MEMB     15       OSM      H14F     HAL2     0.900000E-01   1.00800           0
     10567 MEMB     15       OSM      H14G     HAL2     0.900000E-01   1.00800           0
     10568 MEMB     15       OSM      C15F     CTL2    -0.180000       12.0110           0
     10569 MEMB     15       OSM      H15F     HAL2     0.900000E-01   1.00800           0
     10570 MEMB     15       OSM      H15G     HAL2     0.900000E-01   1.00800           0
     10571 MEMB     15       OSM      C16F     CTL2    -0.180000       12.0110           0
     10572 MEMB     15       OSM      H16F     HAL2     0.900000E-01   1.00800           0
     10573 MEMB     15       OSM      H16G     HAL2     0.900000E-01   1.00800           0
     10574 MEMB     15       OSM      C17F     CTL2    -0.180000       12.0110           0
     10575 MEMB     15       OSM      H17F     HAL2     0.900000E-01   1.00800           0
     10576 MEMB     15       OSM      H17G     HAL2     0.900000E-01   1.00800           0
     10577 MEMB     15       OSM      C18F     CTL3    -0.270000       12.0110           0
     10578 MEMB     15       OSM      H18F     HAL3     0.900000E-01   1.00800           0
     10579 MEMB     15       OSM      H18G     HAL3     0.900000E-01   1.00800           0
     10580 MEMB     15       OSM      H18H     HAL3     0.900000E-01   1.00800           0
     10581 MEMB     17       OSM      N        NTL     -0.600000       14.0070           0
     10582 MEMB     17       OSM      C15      CTL5    -0.350000       12.0110           0
     10583 MEMB     17       OSM      H15A     HL       0.250000       1.00800           0
     10584 MEMB     17       OSM      H15B     HL       0.250000       1.00800           0
     10585 MEMB     17       OSM      H15C     HL       0.250000       1.00800           0
     10586 MEMB     17       OSM      C14      CTL5    -0.350000       12.0110           0
     10587 MEMB     17       OSM      H14A     HL       0.250000       1.00800           0
     10588 MEMB     17       OSM      H14B     HL       0.250000       1.00800           0
     10589 MEMB     17       OSM      H14C     HL       0.250000       1.00800           0
     10590 MEMB     17       OSM      C13      CTL5    -0.350000       12.0110           0
     10591 MEMB     17       OSM      H13A     HL       0.250000       1.00800           0
     10592 MEMB     17       OSM      H13B     HL       0.250000       1.00800           0
     10593 MEMB     17       OSM      H13C     HL       0.250000       1.00800           0
     10594 MEMB     17       OSM      C12      CTL2    -0.100000       12.0110           0
     10595 MEMB     17       OSM      H12A     HL       0.250000       1.00800           0
     10596 MEMB     17       OSM      H12B     HL       0.250000       1.00800           0
     10597 MEMB     17       OSM      C11      CTL2    -0.800000E-01   12.0110           0
     10598 MEMB     17       OSM      H11A     HAL2     0.900000E-01   1.00800           0
     10599 MEMB     17       OSM      H11B     HAL2     0.900000E-01   1.00800           0
     10600 MEMB     17       OSM      P        PL       1.500000       30.9740           0
     10601 MEMB     17       OSM      O13      O2L     -0.780000       15.9994           0
     10602 MEMB     17       OSM      O14      O2L     -0.780000       15.9994           0
     10603 MEMB     17       OSM      O11      OSLP    -0.570000       15.9994           0
     10604 MEMB     17       OSM      O12      OSLP    -0.570000       15.9994           0
     10605 MEMB     17       OSM      C1S      CTL2    -0.800000E-01   12.0110           0
     10606 MEMB     17       OSM      H1S      HAL2     0.900000E-01   1.00800           0
     10607 MEMB     17       OSM      H1T      HAL2     0.900000E-01   1.00800           0
     10608 MEMB     17       OSM      NF       NHL     -0.700000       14.0070           0
     10609 MEMB     17       OSM      HNF      H        0.350000       1.00800           0
     10610 MEMB     17       OSM      C2S      CTL1     0.300000       12.0110           0
     10611 MEMB     17       OSM      H2S      HAL1     0.500000E-01   1.00800           0
     10612 MEMB     17       OSM      C3S      CTO1     0.500000       12.0110           0
     10613 MEMB     17       OSM      H3S      HAL1    -0.110000       1.00800           0
     10614 MEMB     17       OSM      O3       OHL     -0.690000       15.9994           0
     10615 MEMB     17       OSM      HO3      HOL      0.300000       1.00800           0
     10616 MEMB     17       OSM      C4S      CEL3    -0.150000       12.0110           0
     10617 MEMB     17       OSM      H4S      HEL1     0.150000       1.00800           0
     10618 MEMB     17       OSM      C5S      CEL3    -0.150000       12.0110           0
     10619 MEMB     17       OSM      H5S      HEL1     0.150000       1.00800           0
     10620 MEMB     17       OSM      C6S      CTL2    -0.180000       12.0110           0
     10621 MEMB     17       OSM      H6S      HAL2     0.900000E-01   1.00800           0
     10622 MEMB     17       OSM      H6T      HAL2     0.900000E-01   1.00800           0
     10623 MEMB     17       OSM      C7S      CTL2    -0.180000       12.0110           0
     10624 MEMB     17       OSM      H7S      HAL2     0.900000E-01   1.00800           0
     10625 MEMB     17       OSM      H7T      HAL2     0.900000E-01   1.00800           0
     10626 MEMB     17       OSM      C8S      CTL2    -0.180000       12.0110           0
     10627 MEMB     17       OSM      H8S      HAL2     0.900000E-01   1.00800           0
     10628 MEMB     17       OSM      H8T      HAL2     0.900000E-01   1.00800           0
     10629 MEMB     17       OSM      C9S      CTL2    -0.180000       12.0110           0
     10630 MEMB     17       OSM      H9S      HAL2     0.900000E-01   1.00800           0
     10631 MEMB     17       OSM      H9T      HAL2     0.900000E-01   1.00800           0
     10632 MEMB     17       OSM      C10S     CTL2    -0.180000       12.0110           0
     10633 MEMB     17       OSM      H10S     HAL2     0.900000E-01   1.00800           0
     10634 MEMB     17       OSM      H10T     HAL2     0.900000E-01   1.00800           0
     10635 MEMB     17       OSM      C11S     CTL2    -0.180000       12.0110           0
     10636 MEMB     17       OSM      H11S     HAL2     0.900000E-01   1.00800           0
     10637 MEMB     17       OSM      H11T     HAL2     0.900000E-01   1.00800           0
     10638 MEMB     17       OSM      C12S     CTL2    -0.180000       12.0110           0
     10639 MEMB     17       OSM      H12S     HAL2     0.900000E-01   1.00800           0
     10640 MEMB     17       OSM      H12T     HAL2     0.900000E-01   1.00800           0
     10641 MEMB     17       OSM      C13S     CTL2    -0.180000       12.0110           0
     10642 MEMB     17       OSM      H13S     HAL2     0.900000E-01   1.00800           0
     10643 MEMB     17       OSM      H13T     HAL2     0.900000E-01   1.00800           0
     10644 MEMB     17       OSM      C14S     CTL2    -0.180000       12.0110           0
     10645 MEMB     17       OSM      H14S     HAL2     0.900000E-01   1.00800           0
     10646 MEMB     17       OSM      H14T     HAL2     0.900000E-01   1.00800           0
     10647 MEMB     17       OSM      C15S     CTL2    -0.180000       12.0110           0
     10648 MEMB     17       OSM      H15S     HAL2     0.900000E-01   1.00800           0
     10649 MEMB     17       OSM      H15T     HAL2     0.900000E-01   1.00800           0
     10650 MEMB     17       OSM      C16S     CTL2    -0.180000       12.0110           0
     10651 MEMB     17       OSM      H16S     HAL2     0.900000E-01   1.00800           0
     10652 MEMB     17       OSM      H16T     HAL2     0.900000E-01   1.00800           0
     10653 MEMB     17       OSM      C17S     CTL2    -0.180000       12.0110           0
     10654 MEMB     17       OSM      H17S     HAL2     0.900000E-01   1.00800           0
     10655 MEMB     17       OSM      H17T     HAL2     0.900000E-01   1.00800           0
     10656 MEMB     17       OSM      C18S     CTL3    -0.270000       12.0110           0
     10657 MEMB     17       OSM      H18S     HAL3     0.900000E-01   1.00800           0
     10658 MEMB     17       OSM      H18T     HAL3     0.900000E-01   1.00800           0
     10659 MEMB     17       OSM      H18U     HAL3     0.900000E-01   1.00800           0
     10660 MEMB     17       OSM      C1F      C        0.550000       12.0110           0
     10661 MEMB     17       OSM      OF       O       -0.600000       15.9994           0
     10662 MEMB     17       OSM      C2F      CTL2    -0.700000E-01   12.0110           0
     10663 MEMB     17       OSM      H2F      HAL2     0.600000E-01   1.00800           0
     10664 MEMB     17       OSM      H2G      HAL2     0.600000E-01   1.00800           0
     10665 MEMB     17       OSM      C3F      CTL2    -0.180000       12.0110           0
     10666 MEMB     17       OSM      H3F      HAL2     0.900000E-01   1.00800           0
     10667 MEMB     17       OSM      H3G      HAL2     0.900000E-01   1.00800           0
     10668 MEMB     17       OSM      C4F      CTL2    -0.180000       12.0110           0
     10669 MEMB     17       OSM      H4F      HAL2     0.900000E-01   1.00800           0
     10670 MEMB     17       OSM      H4G      HAL2     0.900000E-01   1.00800           0
     10671 MEMB     17       OSM      C5F      CTL2    -0.180000       12.0110           0
     10672 MEMB     17       OSM      H5F      HAL2     0.900000E-01   1.00800           0
     10673 MEMB     17       OSM      H5G      HAL2     0.900000E-01   1.00800           0
     10674 MEMB     17       OSM      C6F      CTL2    -0.180000       12.0110           0
     10675 MEMB     17       OSM      H6F      HAL2     0.900000E-01   1.00800           0
     10676 MEMB     17       OSM      H6G      HAL2     0.900000E-01   1.00800           0
     10677 MEMB     17       OSM      C7F      CTL2    -0.180000       12.0110           0
     10678 MEMB     17       OSM      H7F      HAL2     0.900000E-01   1.00800           0
     10679 MEMB     17       OSM      H7G      HAL2     0.900000E-01   1.00800           0
     10680 MEMB     17       OSM      C8F      CTL2    -0.180000       12.0110           0
     10681 MEMB     17       OSM      H8F      HAL2     0.900000E-01   1.00800           0
     10682 MEMB     17       OSM      H8G      HAL2     0.900000E-01   1.00800           0
     10683 MEMB     17       OSM      C9F      CEL1    -0.150000       12.0110           0
     10684 MEMB     17       OSM      H9F      HEL1     0.150000       1.00800           0
     10685 MEMB     17       OSM      C10F     CEL1    -0.150000       12.0110           0
     10686 MEMB     17       OSM      H10F     HEL1     0.150000       1.00800           0
     10687 MEMB     17       OSM      C11F     CTL2    -0.180000       12.0110           0
     10688 MEMB     17       OSM      H11F     HAL2     0.900000E-01   1.00800           0
     10689 MEMB     17       OSM      H11G     HAL2     0.900000E-01   1.00800           0
     10690 MEMB     17       OSM      C12F     CTL2    -0.180000       12.0110           0
     10691 MEMB     17       OSM      H12F     HAL2     0.900000E-01   1.00800           0
     10692 MEMB     17       OSM      H12G     HAL2     0.900000E-01   1.00800           0
     10693 MEMB     17       OSM      C13F     CTL2    -0.180000       12.0110           0
     10694 MEMB     17       OSM      H13F     HAL2     0.900000E-01   1.00800           0
     10695 MEMB     17       OSM      H13G     HAL2     0.900000E-01   1.00800           0
     10696 MEMB     17       OSM      C14F     CTL2    -0.180000       12.0110           0
     10697 MEMB     17       OSM      H14F     HAL2     0.900000E-01   1.00800           0
     10698 MEMB     17       OSM      H14G     HAL2     0.900000E-01   1.00800           0
     10699 MEMB     17       OSM      C15F     CTL2    -0.180000       12.0110           0
     10700 MEMB     17       OSM      H15F     HAL2     0.900000E-01   1.00800           0
     10701 MEMB     17       OSM      H15G     HAL2     0.900000E-01   1.00800           0
     10702 MEMB     17       OSM      C16F     CTL2    -0.180000       12.0110           0
     10703 MEMB     17       OSM      H16F     HAL2     0.900000E-01   1.00800           0
     10704 MEMB     17       OSM      H16G     HAL2     0.900000E-01   1.00800           0
     10705 MEMB     17       OSM      C17F     CTL2    -0.180000       12.0110           0
     10706 MEMB     17       OSM      H17F     HAL2     0.900000E-01   1.00800           0
     10707 MEMB     17       OSM      H17G     HAL2     0.900000E-01   1.00800           0
     10708 MEMB     17       OSM      C18F     CTL3    -0.270000       12.0110           0
     10709 MEMB     17       OSM      H18F     HAL3     0.900000E-01   1.00800           0
     10710 MEMB     17       OSM      H18G     HAL3     0.900000E-01   1.00800           0
     10711 MEMB     17       OSM      H18H     HAL3     0.900000E-01   1.00800           0
     10712 MEMB     41       OSM      N        NTL     -0.600000       14.0070           0
     10713 MEMB     41       OSM      C15      CTL5    -0.350000       12.0110           0
     10714 MEMB     41       OSM      H15A     HL       0.250000       1.00800           0
     10715 MEMB     41       OSM      H15B     HL       0.250000       1.00800           0
     10716 MEMB     41       OSM      H15C     HL       0.250000       1.00800           0
     10717 MEMB     41       OSM      C14      CTL5    -0.350000       12.0110           0
     10718 MEMB     41       OSM      H14A     HL       0.250000       1.00800           0
     10719 MEMB     41       OSM      H14B     HL       0.250000       1.00800           0
     10720 MEMB     41       OSM      H14C     HL       0.250000       1.00800           0
     10721 MEMB     41       OSM      C13      CTL5    -0.350000       12.0110           0
     10722 MEMB     41       OSM      H13A     HL       0.250000       1.00800           0
     10723 MEMB     41       OSM      H13B     HL       0.250000       1.00800           0
     10724 MEMB     41       OSM      H13C     HL       0.250000       1.00800           0
     10725 MEMB     41       OSM      C12      CTL2    -0.100000       12.0110           0
     10726 MEMB     41       OSM      H12A     HL       0.250000       1.00800           0
     10727 MEMB     41       OSM      H12B     HL       0.250000       1.00800           0
     10728 MEMB     41       OSM      C11      CTL2    -0.800000E-01   12.0110           0
     10729 MEMB     41       OSM      H11A     HAL2     0.900000E-01   1.00800           0
     10730 MEMB     41       OSM      H11B     HAL2     0.900000E-01   1.00800           0
     10731 MEMB     41       OSM      P        PL       1.500000       30.9740           0
     10732 MEMB     41       OSM      O13      O2L     -0.780000       15.9994           0
     10733 MEMB     41       OSM      O14      O2L     -0.780000       15.9994           0
     10734 MEMB     41       OSM      O11      OSLP    -0.570000       15.9994           0
     10735 MEMB     41       OSM      O12      OSLP    -0.570000       15.9994           0
     10736 MEMB     41       OSM      C1S      CTL2    -0.800000E-01   12.0110           0
     10737 MEMB     41       OSM      H1S      HAL2     0.900000E-01   1.00800           0
     10738 MEMB     41       OSM      H1T      HAL2     0.900000E-01   1.00800           0
     10739 MEMB     41       OSM      NF       NHL     -0.700000       14.0070           0
     10740 MEMB     41       OSM      HNF      H        0.350000       1.00800           0
     10741 MEMB     41       OSM      C2S      CTL1     0.300000       12.0110           0
     10742 MEMB     41       OSM      H2S      HAL1     0.500000E-01   1.00800           0
     10743 MEMB     41       OSM      C3S      CTO1     0.500000       12.0110           0
     10744 MEMB     41       OSM      H3S      HAL1    -0.110000       1.00800           0
     10745 MEMB     41       OSM      O3       OHL     -0.690000       15.9994           0
     10746 MEMB     41       OSM      HO3      HOL      0.300000       1.00800           0
     10747 MEMB     41       OSM      C4S      CEL3    -0.150000       12.0110           0
     10748 MEMB     41       OSM      H4S      HEL1     0.150000       1.00800           0
     10749 MEMB     41       OSM      C5S      CEL3    -0.150000       12.0110           0
     10750 MEMB     41       OSM      H5S      HEL1     0.150000       1.00800           0
     10751 MEMB     41       OSM      C6S      CTL2    -0.180000       12.0110           0
     10752 MEMB     41       OSM      H6S      HAL2     0.900000E-01   1.00800           0
     10753 MEMB     41       OSM      H6T      HAL2     0.900000E-01   1.00800           0
     10754 MEMB     41       OSM      C7S      CTL2    -0.180000       12.0110           0
     10755 MEMB     41       OSM      H7S      HAL2     0.900000E-01   1.00800           0
     10756 MEMB     41       OSM      H7T      HAL2     0.900000E-01   1.00800           0
     10757 MEMB     41       OSM      C8S      CTL2    -0.180000       12.0110           0
     10758 MEMB     41       OSM      H8S      HAL2     0.900000E-01   1.00800           0
     10759 MEMB     41       OSM      H8T      HAL2     0.900000E-01   1.00800           0
     10760 MEMB     41       OSM      C9S      CTL2    -0.180000       12.0110           0
     10761 MEMB     41       OSM      H9S      HAL2     0.900000E-01   1.00800           0
     10762 MEMB     41       OSM      H9T      HAL2     0.900000E-01   1.00800           0
     10763 MEMB     41       OSM      C10S     CTL2    -0.180000       12.0110           0
     10764 MEMB     41       OSM      H10S     HAL2     0.900000E-01   1.00800           0
     10765 MEMB     41       OSM      H10T     HAL2     0.900000E-01   1.00800           0
     10766 MEMB     41       OSM      C11S     CTL2    -0.180000       12.0110           0
     10767 MEMB     41       OSM      H11S     HAL2     0.900000E-01   1.00800           0
     10768 MEMB     41       OSM      H11T     HAL2     0.900000E-01   1.00800           0
     10769 MEMB     41       OSM      C12S     CTL2    -0.180000       12.0110           0
     10770 MEMB     41       OSM      H12S     HAL2     0.900000E-01   1.00800           0
     10771 MEMB     41       OSM      H12T     HAL2     0.900000E-01   1.00800           0
     10772 MEMB     41       OSM      C13S     CTL2    -0.180000       12.0110           0
     10773 MEMB     41       OSM      H13S     HAL2     0.900000E-01   1.00800           0
     10774 MEMB     41       OSM      H13T     HAL2     0.900000E-01   1.00800           0
     10775 MEMB     41       OSM      C14S     CTL2    -0.180000       12.0110           0
     10776 MEMB     41       OSM      H14S     HAL2     0.900000E-01   1.00800           0
     10777 MEMB     41       OSM      H14T     HAL2     0.900000E-01   1.00800           0
     10778 MEMB     41       OSM      C15S     CTL2    -0.180000       12.0110           0
     10779 MEMB     41       OSM      H15S     HAL2     0.900000E-01   1.00800           0
     10780 MEMB     41       OSM      H15T     HAL2     0.900000E-01   1.00800           0
     10781 MEMB     41       OSM      C16S     CTL2    -0.180000       12.0110           0
     10782 MEMB     41       OSM      H16S     HAL2     0.900000E-01   1.00800           0
     10783 MEMB     41       OSM      H16T     HAL2     0.900000E-01   1.00800           0
     10784 MEMB     41       OSM      C17S     CTL2    -0.180000       12.0110           0
     10785 MEMB     41       OSM      H17S     HAL2     0.900000E-01   1.00800           0
     10786 MEMB     41       OSM      H17T     HAL2     0.900000E-01   1.00800           0
     10787 MEMB     41       OSM      C18S     CTL3    -0.270000       12.0110           0
     10788 MEMB     41       OSM      H18S     HAL3     0.900000E-01   1.00800           0
     10789 MEMB     41       OSM      H18T     HAL3     0.900000E-01   1.00800           0
     10790 MEMB     41       OSM      H18U     HAL3     0.900000E-01   1.00800           0
     10791 MEMB     41       OSM      C1F      C        0.550000       12.0110           0
     10792 MEMB     41       OSM      OF       O       -0.600000       15.9994           0
     10793 MEMB     41       OSM      C2F      CTL2    -0.700000E-01   12.0110           0
     10794 MEMB     41       OSM      H2F      HAL2     0.600000E-01   1.00800           0
     10795 MEMB     41       OSM      H2G      HAL2     0.600000E-01   1.00800           0
     10796 MEMB     41       OSM      C3F      CTL2    -0.180000       12.0110           0
     10797 MEMB     41       OSM      H3F      HAL2     0.900000E-01   1.00800           0
     10798 MEMB     41       OSM      H3G      HAL2     0.900000E-01   1.00800           0
     10799 MEMB     41       OSM      C4F      CTL2    -0.180000       12.0110           0
     10800 MEMB     41       OSM      H4F      HAL2     0.900000E-01   1.00800           0
     10801 MEMB     41       OSM      H4G      HAL2     0.900000E-01   1.00800           0
     10802 MEMB     41       OSM      C5F      CTL2    -0.180000       12.0110           0
     10803 MEMB     41       OSM      H5F      HAL2     0.900000E-01   1.00800           0
     10804 MEMB     41       OSM      H5G      HAL2     0.900000E-01   1.00800           0
     10805 MEMB     41       OSM      C6F      CTL2    -0.180000       12.0110           0
     10806 MEMB     41       OSM      H6F      HAL2     0.900000E-01   1.00800           0
     10807 MEMB     41       OSM      H6G      HAL2     0.900000E-01   1.00800           0
     10808 MEMB     41       OSM      C7F      CTL2    -0.180000       12.0110           0
     10809 MEMB     41       OSM      H7F      HAL2     0.900000E-01   1.00800           0
     10810 MEMB     41       OSM      H7G      HAL2     0.900000E-01   1.00800           0
     10811 MEMB     41       OSM      C8F      CTL2    -0.180000       12.0110           0
     10812 MEMB     41       OSM      H8F      HAL2     0.900000E-01   1.00800           0
     10813 MEMB     41       OSM      H8G      HAL2     0.900000E-01   1.00800           0
     10814 MEMB     41       OSM      C9F      CEL1    -0.150000       12.0110           0
     10815 MEMB     41       OSM      H9F      HEL1     0.150000       1.00800           0
     10816 MEMB     41       OSM      C10F     CEL1    -0.150000       12.0110           0
     10817 MEMB     41       OSM      H10F     HEL1     0.150000       1.00800           0
     10818 MEMB     41       OSM      C11F     CTL2    -0.180000       12.0110           0
     10819 MEMB     41       OSM      H11F     HAL2     0.900000E-01   1.00800           0
     10820 MEMB     41       OSM      H11G     HAL2     0.900000E-01   1.00800           0
     10821 MEMB     41       OSM      C12F     CTL2    -0.180000       12.0110           0
     10822 MEMB     41       OSM      H12F     HAL2     0.900000E-01   1.00800           0
     10823 MEMB     41       OSM      H12G     HAL2     0.900000E-01   1.00800           0
     10824 MEMB     41       OSM      C13F     CTL2    -0.180000       12.0110           0
     10825 MEMB     41       OSM      H13F     HAL2     0.900000E-01   1.00800           0
     10826 MEMB     41       OSM      H13G     HAL2     0.900000E-01   1.00800           0
     10827 MEMB     41       OSM      C14F     CTL2    -0.180000       12.0110           0
     10828 MEMB     41       OSM      H14F     HAL2     0.900000E-01   1.00800           0
     10829 MEMB     41       OSM      H14G     HAL2     0.900000E-01   1.00800           0
     10830 MEMB     41       OSM      C15F     CTL2    -0.180000       12.0110           0
     10831 MEMB     41       OSM      H15F     HAL2     0.900000E-01   1.00800           0
     10832 MEMB     41       OSM      H15G     HAL2     0.900000E-01   1.00800           0
     10833 MEMB     41       OSM      C16F     CTL2    -0.180000       12.0110           0
     10834 MEMB     41       OSM      H16F     HAL2     0.900000E-01   1.00800           0
     10835 MEMB     41       OSM      H16G     HAL2     0.900000E-01   1.00800           0
     10836 MEMB     41       OSM      C17F     CTL2    -0.180000       12.0110           0
     10837 MEMB     41       OSM      H17F     HAL2     0.900000E-01   1.00800           0
     10838 MEMB     41       OSM      H17G     HAL2     0.900000E-01   1.00800           0
     10839 MEMB     41       OSM      C18F     CTL3    -0.270000       12.0110           0
     10840 MEMB     41       OSM      H18F     HAL3     0.900000E-01   1.00800           0
     10841 MEMB     41       OSM      H18G     HAL3     0.900000E-01   1.00800           0
     10842 MEMB     41       OSM      H18H     HAL3     0.900000E-01   1.00800           0
     10843 MEMB     42       OSM      N        NTL     -0.600000       14.0070           0
     10844 MEMB     42       OSM      C15      CTL5    -0.350000       12.0110           0
     10845 MEMB     42       OSM      H15A     HL       0.250000       1.00800           0
     10846 MEMB     42       OSM      H15B     HL       0.250000       1.00800           0
     10847 MEMB     42       OSM      H15C     HL       0.250000       1.00800           0
     10848 MEMB     42       OSM      C14      CTL5    -0.350000       12.0110           0
     10849 MEMB     42       OSM      H14A     HL       0.250000       1.00800           0
     10850 MEMB     42       OSM      H14B     HL       0.250000       1.00800           0
     10851 MEMB     42       OSM      H14C     HL       0.250000       1.00800           0
     10852 MEMB     42       OSM      C13      CTL5    -0.350000       12.0110           0
     10853 MEMB     42       OSM      H13A     HL       0.250000       1.00800           0
     10854 MEMB     42       OSM      H13B     HL       0.250000       1.00800           0
     10855 MEMB     42       OSM      H13C     HL       0.250000       1.00800           0
     10856 MEMB     42       OSM      C12      CTL2    -0.100000       12.0110           0
     10857 MEMB     42       OSM      H12A     HL       0.250000       1.00800           0
     10858 MEMB     42       OSM      H12B     HL       0.250000       1.00800           0
     10859 MEMB     42       OSM      C11      CTL2    -0.800000E-01   12.0110           0
     10860 MEMB     42       OSM      H11A     HAL2     0.900000E-01   1.00800           0
     10861 MEMB     42       OSM      H11B     HAL2     0.900000E-01   1.00800           0
     10862 MEMB     42       OSM      P        PL       1.500000       30.9740           0
     10863 MEMB     42       OSM      O13      O2L     -0.780000       15.9994           0
     10864 MEMB     42       OSM      O14      O2L     -0.780000       15.9994           0
     10865 MEMB     42       OSM      O11      OSLP    -0.570000       15.9994           0
     10866 MEMB     42       OSM      O12      OSLP    -0.570000       15.9994           0
     10867 MEMB     42       OSM      C1S      CTL2    -0.800000E-01   12.0110           0
     10868 MEMB     42       OSM      H1S      HAL2     0.900000E-01   1.00800           0
     10869 MEMB     42       OSM      H1T      HAL2     0.900000E-01   1.00800           0
     10870 MEMB     42       OSM      NF       NHL     -0.700000       14.0070           0
     10871 MEMB     42       OSM      HNF      H        0.350000       1.00800           0
     10872 MEMB     42       OSM      C2S      CTL1     0.300000       12.0110           0
     10873 MEMB     42       OSM      H2S      HAL1     0.500000E-01   1.00800           0
     10874 MEMB     42       OSM      C3S      CTO1     0.500000       12.0110           0
     10875 MEMB     42       OSM      H3S      HAL1    -0.110000       1.00800           0
     10876 MEMB     42       OSM      O3       OHL     -0.690000       15.9994           0
     10877 MEMB     42       OSM      HO3      HOL      0.300000       1.00800           0
     10878 MEMB     42       OSM      C4S      CEL3    -0.150000       12.0110           0
     10879 MEMB     42       OSM      H4S      HEL1     0.150000       1.00800           0
     10880 MEMB     42       OSM      C5S      CEL3    -0.150000       12.0110           0
     10881 MEMB     42       OSM      H5S      HEL1     0.150000       1.00800           0
     10882 MEMB     42       OSM      C6S      CTL2    -0.180000       12.0110           0
     10883 MEMB     42       OSM      H6S      HAL2     0.900000E-01   1.00800           0
     10884 MEMB     42       OSM      H6T      HAL2     0.900000E-01   1.00800           0
     10885 MEMB     42       OSM      C7S      CTL2    -0.180000       12.0110           0
     10886 MEMB     42       OSM      H7S      HAL2     0.900000E-01   1.00800           0
     10887 MEMB     42       OSM      H7T      HAL2     0.900000E-01   1.00800           0
     10888 MEMB     42       OSM      C8S      CTL2    -0.180000       12.0110           0
     10889 MEMB     42       OSM      H8S      HAL2     0.900000E-01   1.00800           0
     10890 MEMB     42       OSM      H8T      HAL2     0.900000E-01   1.00800           0
     10891 MEMB     42       OSM      C9S      CTL2    -0.180000       12.0110           0
     10892 MEMB     42       OSM      H9S      HAL2     0.900000E-01   1.00800           0
     10893 MEMB     42       OSM      H9T      HAL2     0.900000E-01   1.00800           0
     10894 MEMB     42       OSM      C10S     CTL2    -0.180000       12.0110           0
     10895 MEMB     42       OSM      H10S     HAL2     0.900000E-01   1.00800           0
     10896 MEMB     42       OSM      H10T     HAL2     0.900000E-01   1.00800           0
     10897 MEMB     42       OSM      C11S     CTL2    -0.180000       12.0110           0
     10898 MEMB     42       OSM      H11S     HAL2     0.900000E-01   1.00800           0
     10899 MEMB     42       OSM      H11T     HAL2     0.900000E-01   1.00800           0
     10900 MEMB     42       OSM      C12S     CTL2    -0.180000       12.0110           0
     10901 MEMB     42       OSM      H12S     HAL2     0.900000E-01   1.00800           0
     10902 MEMB     42       OSM      H12T     HAL2     0.900000E-01   1.00800           0
     10903 MEMB     42       OSM      C13S     CTL2    -0.180000       12.0110           0
     10904 MEMB     42       OSM      H13S     HAL2     0.900000E-01   1.00800           0
     10905 MEMB     42       OSM      H13T     HAL2     0.900000E-01   1.00800           0
     10906 MEMB     42       OSM      C14S     CTL2    -0.180000       12.0110           0
     10907 MEMB     42       OSM      H14S     HAL2     0.900000E-01   1.00800           0
     10908 MEMB     42       OSM      H14T     HAL2     0.900000E-01   1.00800           0
     10909 MEMB     42       OSM      C15S     CTL2    -0.180000       12.0110           0
     10910 MEMB     42       OSM      H15S     HAL2     0.900000E-01   1.00800           0
     10911 MEMB     42       OSM      H15T     HAL2     0.900000E-01   1.00800           0
     10912 MEMB     42       OSM      C16S     CTL2    -0.180000       12.0110           0
     10913 MEMB     42       OSM      H16S     HAL2     0.900000E-01   1.00800           0
     10914 MEMB     42       OSM      H16T     HAL2     0.900000E-01   1.00800           0
     10915 MEMB     42       OSM      C17S     CTL2    -0.180000       12.0110           0
     10916 MEMB     42       OSM      H17S     HAL2     0.900000E-01   1.00800           0
     10917 MEMB     42       OSM      H17T     HAL2     0.900000E-01   1.00800           0
     10918 MEMB     42       OSM      C18S     CTL3    -0.270000       12.0110           0
     10919 MEMB     42       OSM      H18S     HAL3     0.900000E-01   1.00800           0
     10920 MEMB     42       OSM      H18T     HAL3     0.900000E-01   1.00800           0
     10921 MEMB     42       OSM      H18U     HAL3     0.900000E-01   1.00800           0
     10922 MEMB     42       OSM      C1F      C        0.550000       12.0110           0
     10923 MEMB     42       OSM      OF       O       -0.600000       15.9994           0
     10924 MEMB     42       OSM      C2F      CTL2    -0.700000E-01   12.0110           0
     10925 MEMB     42       OSM      H2F      HAL2     0.600000E-01   1.00800           0
     10926 MEMB     42       OSM      H2G      HAL2     0.600000E-01   1.00800           0
     10927 MEMB     42       OSM      C3F      CTL2    -0.180000       12.0110           0
     10928 MEMB     42       OSM      H3F      HAL2     0.900000E-01   1.00800           0
     10929 MEMB     42       OSM      H3G      HAL2     0.900000E-01   1.00800           0
     10930 MEMB     42       OSM      C4F      CTL2    -0.180000       12.0110           0
     10931 MEMB     42       OSM      H4F      HAL2     0.900000E-01   1.00800           0
     10932 MEMB     42       OSM      H4G      HAL2     0.900000E-01   1.00800           0
     10933 MEMB     42       OSM      C5F      CTL2    -0.180000       12.0110           0
     10934 MEMB     42       OSM      H5F      HAL2     0.900000E-01   1.00800           0
     10935 MEMB     42       OSM      H5G      HAL2     0.900000E-01   1.00800           0
     10936 MEMB     42       OSM      C6F      CTL2    -0.180000       12.0110           0
     10937 MEMB     42       OSM      H6F      HAL2     0.900000E-01   1.00800           0
     10938 MEMB     42       OSM      H6G      HAL2     0.900000E-01   1.00800           0
     10939 MEMB     42       OSM      C7F      CTL2    -0.180000       12.0110           0
     10940 MEMB     42       OSM      H7F      HAL2     0.900000E-01   1.00800           0
     10941 MEMB     42       OSM      H7G      HAL2     0.900000E-01   1.00800           0
     10942 MEMB     42       OSM      C8F      CTL2    -0.180000       12.0110           0
     10943 MEMB     42       OSM      H8F      HAL2     0.900000E-01   1.00800           0
     10944 MEMB     42       OSM      H8G      HAL2     0.900000E-01   1.00800           0
     10945 MEMB     42       OSM      C9F      CEL1    -0.150000       12.0110           0
     10946 MEMB     42       OSM      H9F      HEL1     0.150000       1.00800           0
     10947 MEMB     42       OSM      C10F     CEL1    -0.150000       12.0110           0
     10948 MEMB     42       OSM      H10F     HEL1     0.150000       1.00800           0
     10949 MEMB     42       OSM      C11F     CTL2    -0.180000       12.0110           0
     10950 MEMB     42       OSM      H11F     HAL2     0.900000E-01   1.00800           0
     10951 MEMB     42       OSM      H11G     HAL2     0.900000E-01   1.00800           0
     10952 MEMB     42       OSM      C12F     CTL2    -0.180000       12.0110           0
     10953 MEMB     42       OSM      H12F     HAL2     0.900000E-01   1.00800           0
     10954 MEMB     42       OSM      H12G     HAL2     0.900000E-01   1.00800           0
     10955 MEMB     42       OSM      C13F     CTL2    -0.180000       12.0110           0
     10956 MEMB     42       OSM      H13F     HAL2     0.900000E-01   1.00800           0
     10957 MEMB     42       OSM      H13G     HAL2     0.900000E-01   1.00800           0
     10958 MEMB     42       OSM      C14F     CTL2    -0.180000       12.0110           0
     10959 MEMB     42       OSM      H14F     HAL2     0.900000E-01   1.00800           0
     10960 MEMB     42       OSM      H14G     HAL2     0.900000E-01   1.00800           0
     10961 MEMB     42       OSM      C15F     CTL2    -0.180000       12.0110           0
     10962 MEMB     42       OSM      H15F     HAL2     0.900000E-01   1.00800           0
     10963 MEMB     42       OSM      H15G     HAL2     0.900000E-01   1.00800           0
     10964 MEMB     42       OSM      C16F     CTL2    -0.180000       12.0110           0
     10965 MEMB     42       OSM      H16F     HAL2     0.900000E-01   1.00800           0
     10966 MEMB     42       OSM      H16G     HAL2     0.900000E-01   1.00800           0
     10967 MEMB     42       OSM      C17F     CTL2    -0.180000       12.0110           0
     10968 MEMB     42       OSM      H17F     HAL2     0.900000E-01   1.00800           0
     10969 MEMB     42       OSM      H17G     HAL2     0.900000E-01   1.00800           0
     10970 MEMB     42       OSM      C18F     CTL3    -0.270000       12.0110           0
     10971 MEMB     42       OSM      H18F     HAL3     0.900000E-01   1.00800           0
     10972 MEMB     42       OSM      H18G     HAL3     0.900000E-01   1.00800           0
     10973 MEMB     42       OSM      H18H     HAL3     0.900000E-01   1.00800           0
     10974 MEMB     44       OSM      N        NTL     -0.600000       14.0070           0
     10975 MEMB     44       OSM      C15      CTL5    -0.350000       12.0110           0
     10976 MEMB     44       OSM      H15A     HL       0.250000       1.00800           0
     10977 MEMB     44       OSM      H15B     HL       0.250000       1.00800           0
     10978 MEMB     44       OSM      H15C     HL       0.250000       1.00800           0
     10979 MEMB     44       OSM      C14      CTL5    -0.350000       12.0110           0
     10980 MEMB     44       OSM      H14A     HL       0.250000       1.00800           0
     10981 MEMB     44       OSM      H14B     HL       0.250000       1.00800           0
     10982 MEMB     44       OSM      H14C     HL       0.250000       1.00800           0
     10983 MEMB     44       OSM      C13      CTL5    -0.350000       12.0110           0
     10984 MEMB     44       OSM      H13A     HL       0.250000       1.00800           0
     10985 MEMB     44       OSM      H13B     HL       0.250000       1.00800           0
     10986 MEMB     44       OSM      H13C     HL       0.250000       1.00800           0
     10987 MEMB     44       OSM      C12      CTL2    -0.100000       12.0110           0
     10988 MEMB     44       OSM      H12A     HL       0.250000       1.00800           0
     10989 MEMB     44       OSM      H12B     HL       0.250000       1.00800           0
     10990 MEMB     44       OSM      C11      CTL2    -0.800000E-01   12.0110           0
     10991 MEMB     44       OSM      H11A     HAL2     0.900000E-01   1.00800           0
     10992 MEMB     44       OSM      H11B     HAL2     0.900000E-01   1.00800           0
     10993 MEMB     44       OSM      P        PL       1.500000       30.9740           0
     10994 MEMB     44       OSM      O13      O2L     -0.780000       15.9994           0
     10995 MEMB     44       OSM      O14      O2L     -0.780000       15.9994           0
     10996 MEMB     44       OSM      O11      OSLP    -0.570000       15.9994           0
     10997 MEMB     44       OSM      O12      OSLP    -0.570000       15.9994           0
     10998 MEMB     44       OSM      C1S      CTL2    -0.800000E-01   12.0110           0
     10999 MEMB     44       OSM      H1S      HAL2     0.900000E-01   1.00800           0
     11000 MEMB     44       OSM      H1T      HAL2     0.900000E-01   1.00800           0
     11001 MEMB     44       OSM      NF       NHL     -0.700000       14.0070           0
     11002 MEMB     44       OSM      HNF      H        0.350000       1.00800           0
     11003 MEMB     44       OSM      C2S      CTL1     0.300000       12.0110           0
     11004 MEMB     44       OSM      H2S      HAL1     0.500000E-01   1.00800           0
     11005 MEMB     44       OSM      C3S      CTO1     0.500000       12.0110           0
     11006 MEMB     44       OSM      H3S      HAL1    -0.110000       1.00800           0
     11007 MEMB     44       OSM      O3       OHL     -0.690000       15.9994           0
     11008 MEMB     44       OSM      HO3      HOL      0.300000       1.00800           0
     11009 MEMB     44       OSM      C4S      CEL3    -0.150000       12.0110           0
     11010 MEMB     44       OSM      H4S      HEL1     0.150000       1.00800           0
     11011 MEMB     44       OSM      C5S      CEL3    -0.150000       12.0110           0
     11012 MEMB     44       OSM      H5S      HEL1     0.150000       1.00800           0
     11013 MEMB     44       OSM      C6S      CTL2    -0.180000       12.0110           0
     11014 MEMB     44       OSM      H6S      HAL2     0.900000E-01   1.00800           0
     11015 MEMB     44       OSM      H6T      HAL2     0.900000E-01   1.00800           0
     11016 MEMB     44       OSM      C7S      CTL2    -0.180000       12.0110           0
     11017 MEMB     44       OSM      H7S      HAL2     0.900000E-01   1.00800           0
     11018 MEMB     44       OSM      H7T      HAL2     0.900000E-01   1.00800           0
     11019 MEMB     44       OSM      C8S      CTL2    -0.180000       12.0110           0
     11020 MEMB     44       OSM      H8S      HAL2     0.900000E-01   1.00800           0
     11021 MEMB     44       OSM      H8T      HAL2     0.900000E-01   1.00800           0
     11022 MEMB     44       OSM      C9S      CTL2    -0.180000       12.0110           0
     11023 MEMB     44       OSM      H9S      HAL2     0.900000E-01   1.00800           0
     11024 MEMB     44       OSM      H9T      HAL2     0.900000E-01   1.00800           0
     11025 MEMB     44       OSM      C10S     CTL2    -0.180000       12.0110           0
     11026 MEMB     44       OSM      H10S     HAL2     0.900000E-01   1.00800           0
     11027 MEMB     44       OSM      H10T     HAL2     0.900000E-01   1.00800           0
     11028 MEMB     44       OSM      C11S     CTL2    -0.180000       12.0110           0
     11029 MEMB     44       OSM      H11S     HAL2     0.900000E-01   1.00800           0
     11030 MEMB     44       OSM      H11T     HAL2     0.900000E-01   1.00800           0
     11031 MEMB     44       OSM      C12S     CTL2    -0.180000       12.0110           0
     11032 MEMB     44       OSM      H12S     HAL2     0.900000E-01   1.00800           0
     11033 MEMB     44       OSM      H12T     HAL2     0.900000E-01   1.00800           0
     11034 MEMB     44       OSM      C13S     CTL2    -0.180000       12.0110           0
     11035 MEMB     44       OSM      H13S     HAL2     0.900000E-01   1.00800           0
     11036 MEMB     44       OSM      H13T     HAL2     0.900000E-01   1.00800           0
     11037 MEMB     44       OSM      C14S     CTL2    -0.180000       12.0110           0
     11038 MEMB     44       OSM      H14S     HAL2     0.900000E-01   1.00800           0
     11039 MEMB     44       OSM      H14T     HAL2     0.900000E-01   1.00800           0
     11040 MEMB     44       OSM      C15S     CTL2    -0.180000       12.0110           0
     11041 MEMB     44       OSM      H15S     HAL2     0.900000E-01   1.00800           0
     11042 MEMB     44       OSM      H15T     HAL2     0.900000E-01   1.00800           0
     11043 MEMB     44       OSM      C16S     CTL2    -0.180000       12.0110           0
     11044 MEMB     44       OSM      H16S     HAL2     0.900000E-01   1.00800           0
     11045 MEMB     44       OSM      H16T     HAL2     0.900000E-01   1.00800           0
     11046 MEMB     44       OSM      C17S     CTL2    -0.180000       12.0110           0
     11047 MEMB     44       OSM      H17S     HAL2     0.900000E-01   1.00800           0
     11048 MEMB     44       OSM      H17T     HAL2     0.900000E-01   1.00800           0
     11049 MEMB     44       OSM      C18S     CTL3    -0.270000       12.0110           0
     11050 MEMB     44       OSM      H18S     HAL3     0.900000E-01   1.00800           0
     11051 MEMB     44       OSM      H18T     HAL3     0.900000E-01   1.00800           0
     11052 MEMB     44       OSM      H18U     HAL3     0.900000E-01   1.00800           0
     11053 MEMB     44       OSM      C1F      C        0.550000       12.0110           0
     11054 MEMB     44       OSM      OF       O       -0.600000       15.9994           0
     11055 MEMB     44       OSM      C2F      CTL2    -0.700000E-01   12.0110           0
     11056 MEMB     44       OSM      H2F      HAL2     0.600000E-01   1.00800           0
     11057 MEMB     44       OSM      H2G      HAL2     0.600000E-01   1.00800           0
     11058 MEMB     44       OSM      C3F      CTL2    -0.180000       12.0110           0
     11059 MEMB     44       OSM      H3F      HAL2     0.900000E-01   1.00800           0
     11060 MEMB     44       OSM      H3G      HAL2     0.900000E-01   1.00800           0
     11061 MEMB     44       OSM      C4F      CTL2    -0.180000       12.0110           0
     11062 MEMB     44       OSM      H4F      HAL2     0.900000E-01   1.00800           0
     11063 MEMB     44       OSM      H4G      HAL2     0.900000E-01   1.00800           0
     11064 MEMB     44       OSM      C5F      CTL2    -0.180000       12.0110           0
     11065 MEMB     44       OSM      H5F      HAL2     0.900000E-01   1.00800           0
     11066 MEMB     44       OSM      H5G      HAL2     0.900000E-01   1.00800           0
     11067 MEMB     44       OSM      C6F      CTL2    -0.180000       12.0110           0
     11068 MEMB     44       OSM      H6F      HAL2     0.900000E-01   1.00800           0
     11069 MEMB     44       OSM      H6G      HAL2     0.900000E-01   1.00800           0
     11070 MEMB     44       OSM      C7F      CTL2    -0.180000       12.0110           0
     11071 MEMB     44       OSM      H7F      HAL2     0.900000E-01   1.00800           0
     11072 MEMB     44       OSM      H7G      HAL2     0.900000E-01   1.00800           0
     11073 MEMB     44       OSM      C8F      CTL2    -0.180000       12.0110           0
     11074 MEMB     44       OSM      H8F      HAL2     0.900000E-01   1.00800           0
     11075 MEMB     44       OSM      H8G      HAL2     0.900000E-01   1.00800           0
     11076 MEMB     44       OSM      C9F      CEL1    -0.150000       12.0110           0
     11077 MEMB     44       OSM      H9F      HEL1     0.150000       1.00800           0
     11078 MEMB     44       OSM      C10F     CEL1    -0.150000       12.0110           0
     11079 MEMB     44       OSM      H10F     HEL1     0.150000       1.00800           0
     11080 MEMB     44       OSM      C11F     CTL2    -0.180000       12.0110           0
     11081 MEMB     44       OSM      H11F     HAL2     0.900000E-01   1.00800           0
     11082 MEMB     44       OSM      H11G     HAL2     0.900000E-01   1.00800           0
     11083 MEMB     44       OSM      C12F     CTL2    -0.180000       12.0110           0
     11084 MEMB     44       OSM      H12F     HAL2     0.900000E-01   1.00800           0
     11085 MEMB     44       OSM      H12G     HAL2     0.900000E-01   1.00800           0
     11086 MEMB     44       OSM      C13F     CTL2    -0.180000       12.0110           0
     11087 MEMB     44       OSM      H13F     HAL2     0.900000E-01   1.00800           0
     11088 MEMB     44       OSM      H13G     HAL2     0.900000E-01   1.00800           0
     11089 MEMB     44       OSM      C14F     CTL2    -0.180000       12.0110           0
     11090 MEMB     44       OSM      H14F     HAL2     0.900000E-01   1.00800           0
     11091 MEMB     44       OSM      H14G     HAL2     0.900000E-01   1.00800           0
     11092 MEMB     44       OSM      C15F     CTL2    -0.180000       12.0110           0
     11093 MEMB     44       OSM      H15F     HAL2     0.900000E-01   1.00800           0
     11094 MEMB     44       OSM      H15G     HAL2     0.900000E-01   1.00800           0
     11095 MEMB     44       OSM      C16F     CTL2    -0.180000       12.0110           0
     11096 MEMB     44       OSM      H16F     HAL2     0.900000E-01   1.00800           0
     11097 MEMB     44       OSM      H16G     HAL2     0.900000E-01   1.00800           0
     11098 MEMB     44       OSM      C17F     CTL2    -0.180000       12.0110           0
     11099 MEMB     44       OSM      H17F     HAL2     0.900000E-01   1.00800           0
     11100 MEMB     44       OSM      H17G     HAL2     0.900000E-01   1.00800           0
     11101 MEMB     44       OSM      C18F     CTL3    -0.270000       12.0110           0
     11102 MEMB     44       OSM      H18F     HAL3     0.900000E-01   1.00800           0
     11103 MEMB     44       OSM      H18G     HAL3     0.900000E-01   1.00800           0
     11104 MEMB     44       OSM      H18H     HAL3     0.900000E-01   1.00800           0
     11105 MEMB     46       OSM      N        NTL     -0.600000       14.0070           0
     11106 MEMB     46       OSM      C15      CTL5    -0.350000       12.0110           0
     11107 MEMB     46       OSM      H15A     HL       0.250000       1.00800           0
     11108 MEMB     46       OSM      H15B     HL       0.250000       1.00800           0
     11109 MEMB     46       OSM      H15C     HL       0.250000       1.00800           0
     11110 MEMB     46       OSM      C14      CTL5    -0.350000       12.0110           0
     11111 MEMB     46       OSM      H14A     HL       0.250000       1.00800           0
     11112 MEMB     46       OSM      H14B     HL       0.250000       1.00800           0
     11113 MEMB     46       OSM      H14C     HL       0.250000       1.00800           0
     11114 MEMB     46       OSM      C13      CTL5    -0.350000       12.0110           0
     11115 MEMB     46       OSM      H13A     HL       0.250000       1.00800           0
     11116 MEMB     46       OSM      H13B     HL       0.250000       1.00800           0
     11117 MEMB     46       OSM      H13C     HL       0.250000       1.00800           0
     11118 MEMB     46       OSM      C12      CTL2    -0.100000       12.0110           0
     11119 MEMB     46       OSM      H12A     HL       0.250000       1.00800           0
     11120 MEMB     46       OSM      H12B     HL       0.250000       1.00800           0
     11121 MEMB     46       OSM      C11      CTL2    -0.800000E-01   12.0110           0
     11122 MEMB     46       OSM      H11A     HAL2     0.900000E-01   1.00800           0
     11123 MEMB     46       OSM      H11B     HAL2     0.900000E-01   1.00800           0
     11124 MEMB     46       OSM      P        PL       1.500000       30.9740           0
     11125 MEMB     46       OSM      O13      O2L     -0.780000       15.9994           0
     11126 MEMB     46       OSM      O14      O2L     -0.780000       15.9994           0
     11127 MEMB     46       OSM      O11      OSLP    -0.570000       15.9994           0
     11128 MEMB     46       OSM      O12      OSLP    -0.570000       15.9994           0
     11129 MEMB     46       OSM      C1S      CTL2    -0.800000E-01   12.0110           0
     11130 MEMB     46       OSM      H1S      HAL2     0.900000E-01   1.00800           0
     11131 MEMB     46       OSM      H1T      HAL2     0.900000E-01   1.00800           0
     11132 MEMB     46       OSM      NF       NHL     -0.700000       14.0070           0
     11133 MEMB     46       OSM      HNF      H        0.350000       1.00800           0
     11134 MEMB     46       OSM      C2S      CTL1     0.300000       12.0110           0
     11135 MEMB     46       OSM      H2S      HAL1     0.500000E-01   1.00800           0
     11136 MEMB     46       OSM      C3S      CTO1     0.500000       12.0110           0
     11137 MEMB     46       OSM      H3S      HAL1    -0.110000       1.00800           0
     11138 MEMB     46       OSM      O3       OHL     -0.690000       15.9994           0
     11139 MEMB     46       OSM      HO3      HOL      0.300000       1.00800           0
     11140 MEMB     46       OSM      C4S      CEL3    -0.150000       12.0110           0
     11141 MEMB     46       OSM      H4S      HEL1     0.150000       1.00800           0
     11142 MEMB     46       OSM      C5S      CEL3    -0.150000       12.0110           0
     11143 MEMB     46       OSM      H5S      HEL1     0.150000       1.00800           0
     11144 MEMB     46       OSM      C6S      CTL2    -0.180000       12.0110           0
     11145 MEMB     46       OSM      H6S      HAL2     0.900000E-01   1.00800           0
     11146 MEMB     46       OSM      H6T      HAL2     0.900000E-01   1.00800           0
     11147 MEMB     46       OSM      C7S      CTL2    -0.180000       12.0110           0
     11148 MEMB     46       OSM      H7S      HAL2     0.900000E-01   1.00800           0
     11149 MEMB     46       OSM      H7T      HAL2     0.900000E-01   1.00800           0
     11150 MEMB     46       OSM      C8S      CTL2    -0.180000       12.0110           0
     11151 MEMB     46       OSM      H8S      HAL2     0.900000E-01   1.00800           0
     11152 MEMB     46       OSM      H8T      HAL2     0.900000E-01   1.00800           0
     11153 MEMB     46       OSM      C9S      CTL2    -0.180000       12.0110           0
     11154 MEMB     46       OSM      H9S      HAL2     0.900000E-01   1.00800           0
     11155 MEMB     46       OSM      H9T      HAL2     0.900000E-01   1.00800           0
     11156 MEMB     46       OSM      C10S     CTL2    -0.180000       12.0110           0
     11157 MEMB     46       OSM      H10S     HAL2     0.900000E-01   1.00800           0
     11158 MEMB     46       OSM      H10T     HAL2     0.900000E-01   1.00800           0
     11159 MEMB     46       OSM      C11S     CTL2    -0.180000       12.0110           0
     11160 MEMB     46       OSM      H11S     HAL2     0.900000E-01   1.00800           0
     11161 MEMB     46       OSM      H11T     HAL2     0.900000E-01   1.00800           0
     11162 MEMB     46       OSM      C12S     CTL2    -0.180000       12.0110           0
     11163 MEMB     46       OSM      H12S     HAL2     0.900000E-01   1.00800           0
     11164 MEMB     46       OSM      H12T     HAL2     0.900000E-01   1.00800           0
     11165 MEMB     46       OSM      C13S     CTL2    -0.180000       12.0110           0
     11166 MEMB     46       OSM      H13S     HAL2     0.900000E-01   1.00800           0
     11167 MEMB     46       OSM      H13T     HAL2     0.900000E-01   1.00800           0
     11168 MEMB     46       OSM      C14S     CTL2    -0.180000       12.0110           0
     11169 MEMB     46       OSM      H14S     HAL2     0.900000E-01   1.00800           0
     11170 MEMB     46       OSM      H14T     HAL2     0.900000E-01   1.00800           0
     11171 MEMB     46       OSM      C15S     CTL2    -0.180000       12.0110           0
     11172 MEMB     46       OSM      H15S     HAL2     0.900000E-01   1.00800           0
     11173 MEMB     46       OSM      H15T     HAL2     0.900000E-01   1.00800           0
     11174 MEMB     46       OSM      C16S     CTL2    -0.180000       12.0110           0
     11175 MEMB     46       OSM      H16S     HAL2     0.900000E-01   1.00800           0
     11176 MEMB     46       OSM      H16T     HAL2     0.900000E-01   1.00800           0
     11177 MEMB     46       OSM      C17S     CTL2    -0.180000       12.0110           0
     11178 MEMB     46       OSM      H17S     HAL2     0.900000E-01   1.00800           0
     11179 MEMB     46       OSM      H17T     HAL2     0.900000E-01   1.00800           0
     11180 MEMB     46       OSM      C18S     CTL3    -0.270000       12.0110           0
     11181 MEMB     46       OSM      H18S     HAL3     0.900000E-01   1.00800           0
     11182 MEMB     46       OSM      H18T     HAL3     0.900000E-01   1.00800           0
     11183 MEMB     46       OSM      H18U     HAL3     0.900000E-01   1.00800           0
     11184 MEMB     46       OSM      C1F      C        0.550000       12.0110           0
     11185 MEMB     46       OSM      OF       O       -0.600000       15.9994           0
     11186 MEMB     46       OSM      C2F      CTL2    -0.700000E-01   12.0110           0
     11187 MEMB     46       OSM      H2F      HAL2     0.600000E-01   1.00800           0
     11188 MEMB     46       OSM      H2G      HAL2     0.600000E-01   1.00800           0
     11189 MEMB     46       OSM      C3F      CTL2    -0.180000       12.0110           0
     11190 MEMB     46       OSM      H3F      HAL2     0.900000E-01   1.00800           0
     11191 MEMB     46       OSM      H3G      HAL2     0.900000E-01   1.00800           0
     11192 MEMB     46       OSM      C4F      CTL2    -0.180000       12.0110           0
     11193 MEMB     46       OSM      H4F      HAL2     0.900000E-01   1.00800           0
     11194 MEMB     46       OSM      H4G      HAL2     0.900000E-01   1.00800           0
     11195 MEMB     46       OSM      C5F      CTL2    -0.180000       12.0110           0
     11196 MEMB     46       OSM      H5F      HAL2     0.900000E-01   1.00800           0
     11197 MEMB     46       OSM      H5G      HAL2     0.900000E-01   1.00800           0
     11198 MEMB     46       OSM      C6F      CTL2    -0.180000       12.0110           0
     11199 MEMB     46       OSM      H6F      HAL2     0.900000E-01   1.00800           0
     11200 MEMB     46       OSM      H6G      HAL2     0.900000E-01   1.00800           0
     11201 MEMB     46       OSM      C7F      CTL2    -0.180000       12.0110           0
     11202 MEMB     46       OSM      H7F      HAL2     0.900000E-01   1.00800           0
     11203 MEMB     46       OSM      H7G      HAL2     0.900000E-01   1.00800           0
     11204 MEMB     46       OSM      C8F      CTL2    -0.180000       12.0110           0
     11205 MEMB     46       OSM      H8F      HAL2     0.900000E-01   1.00800           0
     11206 MEMB     46       OSM      H8G      HAL2     0.900000E-01   1.00800           0
     11207 MEMB     46       OSM      C9F      CEL1    -0.150000       12.0110           0
     11208 MEMB     46       OSM      H9F      HEL1     0.150000       1.00800           0
     11209 MEMB     46       OSM      C10F     CEL1    -0.150000       12.0110           0
     11210 MEMB     46       OSM      H10F     HEL1     0.150000       1.00800           0
     11211 MEMB     46       OSM      C11F     CTL2    -0.180000       12.0110           0
     11212 MEMB     46       OSM      H11F     HAL2     0.900000E-01   1.00800           0
     11213 MEMB     46       OSM      H11G     HAL2     0.900000E-01   1.00800           0
     11214 MEMB     46       OSM      C12F     CTL2    -0.180000       12.0110           0
     11215 MEMB     46       OSM      H12F     HAL2     0.900000E-01   1.00800           0
     11216 MEMB     46       OSM      H12G     HAL2     0.900000E-01   1.00800           0
     11217 MEMB     46       OSM      C13F     CTL2    -0.180000       12.0110           0
     11218 MEMB     46       OSM      H13F     HAL2     0.900000E-01   1.00800           0
     11219 MEMB     46       OSM      H13G     HAL2     0.900000E-01   1.00800           0
     11220 MEMB     46       OSM      C14F     CTL2    -0.180000       12.0110           0
     11221 MEMB     46       OSM      H14F     HAL2     0.900000E-01   1.00800           0
     11222 MEMB     46       OSM      H14G     HAL2     0.900000E-01   1.00800           0
     11223 MEMB     46       OSM      C15F     CTL2    -0.180000       12.0110           0
     11224 MEMB     46       OSM      H15F     HAL2     0.900000E-01   1.00800           0
     11225 MEMB     46       OSM      H15G     HAL2     0.900000E-01   1.00800           0
     11226 MEMB     46       OSM      C16F     CTL2    -0.180000       12.0110           0
     11227 MEMB     46       OSM      H16F     HAL2     0.900000E-01   1.00800           0
     11228 MEMB     46       OSM      H16G     HAL2     0.900000E-01   1.00800           0
     11229 MEMB     46       OSM      C17F     CTL2    -0.180000       12.0110           0
     11230 MEMB     46       OSM      H17F     HAL2     0.900000E-01   1.00800           0
     11231 MEMB     46       OSM      H17G     HAL2     0.900000E-01   1.00800           0
     11232 MEMB     46       OSM      C18F     CTL3    -0.270000       12.0110           0
     11233 MEMB     46       OSM      H18F     HAL3     0.900000E-01   1.00800           0
     11234 MEMB     46       OSM      H18G     HAL3     0.900000E-01   1.00800           0
     11235 MEMB     46       OSM      H18H     HAL3     0.900000E-01   1.00800           0
     11236 MEMB     47       OSM      N        NTL     -0.600000       14.0070           0
     11237 MEMB     47       OSM      C15      CTL5    -0.350000       12.0110           0
     11238 MEMB     47       OSM      H15A     HL       0.250000       1.00800           0
     11239 MEMB     47       OSM      H15B     HL       0.250000       1.00800           0
     11240 MEMB     47       OSM      H15C     HL       0.250000       1.00800           0
     11241 MEMB     47       OSM      C14      CTL5    -0.350000       12.0110           0
     11242 MEMB     47       OSM      H14A     HL       0.250000       1.00800           0
     11243 MEMB     47       OSM      H14B     HL       0.250000       1.00800           0
     11244 MEMB     47       OSM      H14C     HL       0.250000       1.00800           0
     11245 MEMB     47       OSM      C13      CTL5    -0.350000       12.0110           0
     11246 MEMB     47       OSM      H13A     HL       0.250000       1.00800           0
     11247 MEMB     47       OSM      H13B     HL       0.250000       1.00800           0
     11248 MEMB     47       OSM      H13C     HL       0.250000       1.00800           0
     11249 MEMB     47       OSM      C12      CTL2    -0.100000       12.0110           0
     11250 MEMB     47       OSM      H12A     HL       0.250000       1.00800           0
     11251 MEMB     47       OSM      H12B     HL       0.250000       1.00800           0
     11252 MEMB     47       OSM      C11      CTL2    -0.800000E-01   12.0110           0
     11253 MEMB     47       OSM      H11A     HAL2     0.900000E-01   1.00800           0
     11254 MEMB     47       OSM      H11B     HAL2     0.900000E-01   1.00800           0
     11255 MEMB     47       OSM      P        PL       1.500000       30.9740           0
     11256 MEMB     47       OSM      O13      O2L     -0.780000       15.9994           0
     11257 MEMB     47       OSM      O14      O2L     -0.780000       15.9994           0
     11258 MEMB     47       OSM      O11      OSLP    -0.570000       15.9994           0
     11259 MEMB     47       OSM      O12      OSLP    -0.570000       15.9994           0
     11260 MEMB     47       OSM      C1S      CTL2    -0.800000E-01   12.0110           0
     11261 MEMB     47       OSM      H1S      HAL2     0.900000E-01   1.00800           0
     11262 MEMB     47       OSM      H1T      HAL2     0.900000E-01   1.00800           0
     11263 MEMB     47       OSM      NF       NHL     -0.700000       14.0070           0
     11264 MEMB     47       OSM      HNF      H        0.350000       1.00800           0
     11265 MEMB     47       OSM      C2S      CTL1     0.300000       12.0110           0
     11266 MEMB     47       OSM      H2S      HAL1     0.500000E-01   1.00800           0
     11267 MEMB     47       OSM      C3S      CTO1     0.500000       12.0110           0
     11268 MEMB     47       OSM      H3S      HAL1    -0.110000       1.00800           0
     11269 MEMB     47       OSM      O3       OHL     -0.690000       15.9994           0
     11270 MEMB     47       OSM      HO3      HOL      0.300000       1.00800           0
     11271 MEMB     47       OSM      C4S      CEL3    -0.150000       12.0110           0
     11272 MEMB     47       OSM      H4S      HEL1     0.150000       1.00800           0
     11273 MEMB     47       OSM      C5S      CEL3    -0.150000       12.0110           0
     11274 MEMB     47       OSM      H5S      HEL1     0.150000       1.00800           0
     11275 MEMB     47       OSM      C6S      CTL2    -0.180000       12.0110           0
     11276 MEMB     47       OSM      H6S      HAL2     0.900000E-01   1.00800           0
     11277 MEMB     47       OSM      H6T      HAL2     0.900000E-01   1.00800           0
     11278 MEMB     47       OSM      C7S      CTL2    -0.180000       12.0110           0
     11279 MEMB     47       OSM      H7S      HAL2     0.900000E-01   1.00800           0
     11280 MEMB     47       OSM      H7T      HAL2     0.900000E-01   1.00800           0
     11281 MEMB     47       OSM      C8S      CTL2    -0.180000       12.0110           0
     11282 MEMB     47       OSM      H8S      HAL2     0.900000E-01   1.00800           0
     11283 MEMB     47       OSM      H8T      HAL2     0.900000E-01   1.00800           0
     11284 MEMB     47       OSM      C9S      CTL2    -0.180000       12.0110           0
     11285 MEMB     47       OSM      H9S      HAL2     0.900000E-01   1.00800           0
     11286 MEMB     47       OSM      H9T      HAL2     0.900000E-01   1.00800           0
     11287 MEMB     47       OSM      C10S     CTL2    -0.180000       12.0110           0
     11288 MEMB     47       OSM      H10S     HAL2     0.900000E-01   1.00800           0
     11289 MEMB     47       OSM      H10T     HAL2     0.900000E-01   1.00800           0
     11290 MEMB     47       OSM      C11S     CTL2    -0.180000       12.0110           0
     11291 MEMB     47       OSM      H11S     HAL2     0.900000E-01   1.00800           0
     11292 MEMB     47       OSM      H11T     HAL2     0.900000E-01   1.00800           0
     11293 MEMB     47       OSM      C12S     CTL2    -0.180000       12.0110           0
     11294 MEMB     47       OSM      H12S     HAL2     0.900000E-01   1.00800           0
     11295 MEMB     47       OSM      H12T     HAL2     0.900000E-01   1.00800           0
     11296 MEMB     47       OSM      C13S     CTL2    -0.180000       12.0110           0
     11297 MEMB     47       OSM      H13S     HAL2     0.900000E-01   1.00800           0
     11298 MEMB     47       OSM      H13T     HAL2     0.900000E-01   1.00800           0
     11299 MEMB     47       OSM      C14S     CTL2    -0.180000       12.0110           0
     11300 MEMB     47       OSM      H14S     HAL2     0.900000E-01   1.00800           0
     11301 MEMB     47       OSM      H14T     HAL2     0.900000E-01   1.00800           0
     11302 MEMB     47       OSM      C15S     CTL2    -0.180000       12.0110           0
     11303 MEMB     47       OSM      H15S     HAL2     0.900000E-01   1.00800           0
     11304 MEMB     47       OSM      H15T     HAL2     0.900000E-01   1.00800           0
     11305 MEMB     47       OSM      C16S     CTL2    -0.180000       12.0110           0
     11306 MEMB     47       OSM      H16S     HAL2     0.900000E-01   1.00800           0
     11307 MEMB     47       OSM      H16T     HAL2     0.900000E-01   1.00800           0
     11308 MEMB     47       OSM      C17S     CTL2    -0.180000       12.0110           0
     11309 MEMB     47       OSM      H17S     HAL2     0.900000E-01   1.00800           0
     11310 MEMB     47       OSM      H17T     HAL2     0.900000E-01   1.00800           0
     11311 MEMB     47       OSM      C18S     CTL3    -0.270000       12.0110           0
     11312 MEMB     47       OSM      H18S     HAL3     0.900000E-01   1.00800           0
     11313 MEMB     47       OSM      H18T     HAL3     0.900000E-01   1.00800           0
     11314 MEMB     47       OSM      H18U     HAL3     0.900000E-01   1.00800           0
     11315 MEMB     47       OSM      C1F      C        0.550000       12.0110           0
     11316 MEMB     47       OSM      OF       O       -0.600000       15.9994           0
     11317 MEMB     47       OSM      C2F      CTL2    -0.700000E-01   12.0110           0
     11318 MEMB     47       OSM      H2F      HAL2     0.600000E-01   1.00800           0
     11319 MEMB     47       OSM      H2G      HAL2     0.600000E-01   1.00800           0
     11320 MEMB     47       OSM      C3F      CTL2    -0.180000       12.0110           0
     11321 MEMB     47       OSM      H3F      HAL2     0.900000E-01   1.00800           0
     11322 MEMB     47       OSM      H3G      HAL2     0.900000E-01   1.00800           0
     11323 MEMB     47       OSM      C4F      CTL2    -0.180000       12.0110           0
     11324 MEMB     47       OSM      H4F      HAL2     0.900000E-01   1.00800           0
     11325 MEMB     47       OSM      H4G      HAL2     0.900000E-01   1.00800           0
     11326 MEMB     47       OSM      C5F      CTL2    -0.180000       12.0110           0
     11327 MEMB     47       OSM      H5F      HAL2     0.900000E-01   1.00800           0
     11328 MEMB     47       OSM      H5G      HAL2     0.900000E-01   1.00800           0
     11329 MEMB     47       OSM      C6F      CTL2    -0.180000       12.0110           0
     11330 MEMB     47       OSM      H6F      HAL2     0.900000E-01   1.00800           0
     11331 MEMB     47       OSM      H6G      HAL2     0.900000E-01   1.00800           0
     11332 MEMB     47       OSM      C7F      CTL2    -0.180000       12.0110           0
     11333 MEMB     47       OSM      H7F      HAL2     0.900000E-01   1.00800           0
     11334 MEMB     47       OSM      H7G      HAL2     0.900000E-01   1.00800           0
     11335 MEMB     47       OSM      C8F      CTL2    -0.180000       12.0110           0
     11336 MEMB     47       OSM      H8F      HAL2     0.900000E-01   1.00800           0
     11337 MEMB     47       OSM      H8G      HAL2     0.900000E-01   1.00800           0
     11338 MEMB     47       OSM      C9F      CEL1    -0.150000       12.0110           0
     11339 MEMB     47       OSM      H9F      HEL1     0.150000       1.00800           0
     11340 MEMB     47       OSM      C10F     CEL1    -0.150000       12.0110           0
     11341 MEMB     47       OSM      H10F     HEL1     0.150000       1.00800           0
     11342 MEMB     47       OSM      C11F     CTL2    -0.180000       12.0110           0
     11343 MEMB     47       OSM      H11F     HAL2     0.900000E-01   1.00800           0
     11344 MEMB     47       OSM      H11G     HAL2     0.900000E-01   1.00800           0
     11345 MEMB     47       OSM      C12F     CTL2    -0.180000       12.0110           0
     11346 MEMB     47       OSM      H12F     HAL2     0.900000E-01   1.00800           0
     11347 MEMB     47       OSM      H12G     HAL2     0.900000E-01   1.00800           0
     11348 MEMB     47       OSM      C13F     CTL2    -0.180000       12.0110           0
     11349 MEMB     47       OSM      H13F     HAL2     0.900000E-01   1.00800           0
     11350 MEMB     47       OSM      H13G     HAL2     0.900000E-01   1.00800           0
     11351 MEMB     47       OSM      C14F     CTL2    -0.180000       12.0110           0
     11352 MEMB     47       OSM      H14F     HAL2     0.900000E-01   1.00800           0
     11353 MEMB     47       OSM      H14G     HAL2     0.900000E-01   1.00800           0
     11354 MEMB     47       OSM      C15F     CTL2    -0.180000       12.0110           0
     11355 MEMB     47       OSM      H15F     HAL2     0.900000E-01   1.00800           0
     11356 MEMB     47       OSM      H15G     HAL2     0.900000E-01   1.00800           0
     11357 MEMB     47       OSM      C16F     CTL2    -0.180000       12.0110           0
     11358 MEMB     47       OSM      H16F     HAL2     0.900000E-01   1.00800           0
     11359 MEMB     47       OSM      H16G     HAL2     0.900000E-01   1.00800           0
     11360 MEMB     47       OSM      C17F     CTL2    -0.180000       12.0110           0
     11361 MEMB     47       OSM      H17F     HAL2     0.900000E-01   1.00800           0
     11362 MEMB     47       OSM      H17G     HAL2     0.900000E-01   1.00800           0
     11363 MEMB     47       OSM      C18F     CTL3    -0.270000       12.0110           0
     11364 MEMB     47       OSM      H18F     HAL3     0.900000E-01   1.00800           0
     11365 MEMB     47       OSM      H18G     HAL3     0.900000E-01   1.00800           0
     11366 MEMB     47       OSM      H18H     HAL3     0.900000E-01   1.00800           0
     11367 MEMB     53       OSM      N        NTL     -0.600000       14.0070           0
     11368 MEMB     53       OSM      C15      CTL5    -0.350000       12.0110           0
     11369 MEMB     53       OSM      H15A     HL       0.250000       1.00800           0
     11370 MEMB     53       OSM      H15B     HL       0.250000       1.00800           0
     11371 MEMB     53       OSM      H15C     HL       0.250000       1.00800           0
     11372 MEMB     53       OSM      C14      CTL5    -0.350000       12.0110           0
     11373 MEMB     53       OSM      H14A     HL       0.250000       1.00800           0
     11374 MEMB     53       OSM      H14B     HL       0.250000       1.00800           0
     11375 MEMB     53       OSM      H14C     HL       0.250000       1.00800           0
     11376 MEMB     53       OSM      C13      CTL5    -0.350000       12.0110           0
     11377 MEMB     53       OSM      H13A     HL       0.250000       1.00800           0
     11378 MEMB     53       OSM      H13B     HL       0.250000       1.00800           0
     11379 MEMB     53       OSM      H13C     HL       0.250000       1.00800           0
     11380 MEMB     53       OSM      C12      CTL2    -0.100000       12.0110           0
     11381 MEMB     53       OSM      H12A     HL       0.250000       1.00800           0
     11382 MEMB     53       OSM      H12B     HL       0.250000       1.00800           0
     11383 MEMB     53       OSM      C11      CTL2    -0.800000E-01   12.0110           0
     11384 MEMB     53       OSM      H11A     HAL2     0.900000E-01   1.00800           0
     11385 MEMB     53       OSM      H11B     HAL2     0.900000E-01   1.00800           0
     11386 MEMB     53       OSM      P        PL       1.500000       30.9740           0
     11387 MEMB     53       OSM      O13      O2L     -0.780000       15.9994           0
     11388 MEMB     53       OSM      O14      O2L     -0.780000       15.9994           0
     11389 MEMB     53       OSM      O11      OSLP    -0.570000       15.9994           0
     11390 MEMB     53       OSM      O12      OSLP    -0.570000       15.9994           0
     11391 MEMB     53       OSM      C1S      CTL2    -0.800000E-01   12.0110           0
     11392 MEMB     53       OSM      H1S      HAL2     0.900000E-01   1.00800           0
     11393 MEMB     53       OSM      H1T      HAL2     0.900000E-01   1.00800           0
     11394 MEMB     53       OSM      NF       NHL     -0.700000       14.0070           0
     11395 MEMB     53       OSM      HNF      H        0.350000       1.00800           0
     11396 MEMB     53       OSM      C2S      CTL1     0.300000       12.0110           0
     11397 MEMB     53       OSM      H2S      HAL1     0.500000E-01   1.00800           0
     11398 MEMB     53       OSM      C3S      CTO1     0.500000       12.0110           0
     11399 MEMB     53       OSM      H3S      HAL1    -0.110000       1.00800           0
     11400 MEMB     53       OSM      O3       OHL     -0.690000       15.9994           0
     11401 MEMB     53       OSM      HO3      HOL      0.300000       1.00800           0
     11402 MEMB     53       OSM      C4S      CEL3    -0.150000       12.0110           0
     11403 MEMB     53       OSM      H4S      HEL1     0.150000       1.00800           0
     11404 MEMB     53       OSM      C5S      CEL3    -0.150000       12.0110           0
     11405 MEMB     53       OSM      H5S      HEL1     0.150000       1.00800           0
     11406 MEMB     53       OSM      C6S      CTL2    -0.180000       12.0110           0
     11407 MEMB     53       OSM      H6S      HAL2     0.900000E-01   1.00800           0
     11408 MEMB     53       OSM      H6T      HAL2     0.900000E-01   1.00800           0
     11409 MEMB     53       OSM      C7S      CTL2    -0.180000       12.0110           0
     11410 MEMB     53       OSM      H7S      HAL2     0.900000E-01   1.00800           0
     11411 MEMB     53       OSM      H7T      HAL2     0.900000E-01   1.00800           0
     11412 MEMB     53       OSM      C8S      CTL2    -0.180000       12.0110           0
     11413 MEMB     53       OSM      H8S      HAL2     0.900000E-01   1.00800           0
     11414 MEMB     53       OSM      H8T      HAL2     0.900000E-01   1.00800           0
     11415 MEMB     53       OSM      C9S      CTL2    -0.180000       12.0110           0
     11416 MEMB     53       OSM      H9S      HAL2     0.900000E-01   1.00800           0
     11417 MEMB     53       OSM      H9T      HAL2     0.900000E-01   1.00800           0
     11418 MEMB     53       OSM      C10S     CTL2    -0.180000       12.0110           0
     11419 MEMB     53       OSM      H10S     HAL2     0.900000E-01   1.00800           0
     11420 MEMB     53       OSM      H10T     HAL2     0.900000E-01   1.00800           0
     11421 MEMB     53       OSM      C11S     CTL2    -0.180000       12.0110           0
     11422 MEMB     53       OSM      H11S     HAL2     0.900000E-01   1.00800           0
     11423 MEMB     53       OSM      H11T     HAL2     0.900000E-01   1.00800           0
     11424 MEMB     53       OSM      C12S     CTL2    -0.180000       12.0110           0
     11425 MEMB     53       OSM      H12S     HAL2     0.900000E-01   1.00800           0
     11426 MEMB     53       OSM      H12T     HAL2     0.900000E-01   1.00800           0
     11427 MEMB     53       OSM      C13S     CTL2    -0.180000       12.0110           0
     11428 MEMB     53       OSM      H13S     HAL2     0.900000E-01   1.00800           0
     11429 MEMB     53       OSM      H13T     HAL2     0.900000E-01   1.00800           0
     11430 MEMB     53       OSM      C14S     CTL2    -0.180000       12.0110           0
     11431 MEMB     53       OSM      H14S     HAL2     0.900000E-01   1.00800           0
     11432 MEMB     53       OSM      H14T     HAL2     0.900000E-01   1.00800           0
     11433 MEMB     53       OSM      C15S     CTL2    -0.180000       12.0110           0
     11434 MEMB     53       OSM      H15S     HAL2     0.900000E-01   1.00800           0
     11435 MEMB     53       OSM      H15T     HAL2     0.900000E-01   1.00800           0
     11436 MEMB     53       OSM      C16S     CTL2    -0.180000       12.0110           0
     11437 MEMB     53       OSM      H16S     HAL2     0.900000E-01   1.00800           0
     11438 MEMB     53       OSM      H16T     HAL2     0.900000E-01   1.00800           0
     11439 MEMB     53       OSM      C17S     CTL2    -0.180000       12.0110           0
     11440 MEMB     53       OSM      H17S     HAL2     0.900000E-01   1.00800           0
     11441 MEMB     53       OSM      H17T     HAL2     0.900000E-01   1.00800           0
     11442 MEMB     53       OSM      C18S     CTL3    -0.270000       12.0110           0
     11443 MEMB     53       OSM      H18S     HAL3     0.900000E-01   1.00800           0
     11444 MEMB     53       OSM      H18T     HAL3     0.900000E-01   1.00800           0
     11445 MEMB     53       OSM      H18U     HAL3     0.900000E-01   1.00800           0
     11446 MEMB     53       OSM      C1F      C        0.550000       12.0110           0
     11447 MEMB     53       OSM      OF       O       -0.600000       15.9994           0
     11448 MEMB     53       OSM      C2F      CTL2    -0.700000E-01   12.0110           0
     11449 MEMB     53       OSM      H2F      HAL2     0.600000E-01   1.00800           0
     11450 MEMB     53       OSM      H2G      HAL2     0.600000E-01   1.00800           0
     11451 MEMB     53       OSM      C3F      CTL2    -0.180000       12.0110           0
     11452 MEMB     53       OSM      H3F      HAL2     0.900000E-01   1.00800           0
     11453 MEMB     53       OSM      H3G      HAL2     0.900000E-01   1.00800           0
     11454 MEMB     53       OSM      C4F      CTL2    -0.180000       12.0110           0
     11455 MEMB     53       OSM      H4F      HAL2     0.900000E-01   1.00800           0
     11456 MEMB     53       OSM      H4G      HAL2     0.900000E-01   1.00800           0
     11457 MEMB     53       OSM      C5F      CTL2    -0.180000       12.0110           0
     11458 MEMB     53       OSM      H5F      HAL2     0.900000E-01   1.00800           0
     11459 MEMB     53       OSM      H5G      HAL2     0.900000E-01   1.00800           0
     11460 MEMB     53       OSM      C6F      CTL2    -0.180000       12.0110           0
     11461 MEMB     53       OSM      H6F      HAL2     0.900000E-01   1.00800           0
     11462 MEMB     53       OSM      H6G      HAL2     0.900000E-01   1.00800           0
     11463 MEMB     53       OSM      C7F      CTL2    -0.180000       12.0110           0
     11464 MEMB     53       OSM      H7F      HAL2     0.900000E-01   1.00800           0
     11465 MEMB     53       OSM      H7G      HAL2     0.900000E-01   1.00800           0
     11466 MEMB     53       OSM      C8F      CTL2    -0.180000       12.0110           0
     11467 MEMB     53       OSM      H8F      HAL2     0.900000E-01   1.00800           0
     11468 MEMB     53       OSM      H8G      HAL2     0.900000E-01   1.00800           0
     11469 MEMB     53       OSM      C9F      CEL1    -0.150000       12.0110           0
     11470 MEMB     53       OSM      H9F      HEL1     0.150000       1.00800           0
     11471 MEMB     53       OSM      C10F     CEL1    -0.150000       12.0110           0
     11472 MEMB     53       OSM      H10F     HEL1     0.150000       1.00800           0
     11473 MEMB     53       OSM      C11F     CTL2    -0.180000       12.0110           0
     11474 MEMB     53       OSM      H11F     HAL2     0.900000E-01   1.00800           0
     11475 MEMB     53       OSM      H11G     HAL2     0.900000E-01   1.00800           0
     11476 MEMB     53       OSM      C12F     CTL2    -0.180000       12.0110           0
     11477 MEMB     53       OSM      H12F     HAL2     0.900000E-01   1.00800           0
     11478 MEMB     53       OSM      H12G     HAL2     0.900000E-01   1.00800           0
     11479 MEMB     53       OSM      C13F     CTL2    -0.180000       12.0110           0
     11480 MEMB     53       OSM      H13F     HAL2     0.900000E-01   1.00800           0
     11481 MEMB     53       OSM      H13G     HAL2     0.900000E-01   1.00800           0
     11482 MEMB     53       OSM      C14F     CTL2    -0.180000       12.0110           0
     11483 MEMB     53       OSM      H14F     HAL2     0.900000E-01   1.00800           0
     11484 MEMB     53       OSM      H14G     HAL2     0.900000E-01   1.00800           0
     11485 MEMB     53       OSM      C15F     CTL2    -0.180000       12.0110           0
     11486 MEMB     53       OSM      H15F     HAL2     0.900000E-01   1.00800           0
     11487 MEMB     53       OSM      H15G     HAL2     0.900000E-01   1.00800           0
     11488 MEMB     53       OSM      C16F     CTL2    -0.180000       12.0110           0
     11489 MEMB     53       OSM      H16F     HAL2     0.900000E-01   1.00800           0
     11490 MEMB     53       OSM      H16G     HAL2     0.900000E-01   1.00800           0
     11491 MEMB     53       OSM      C17F     CTL2    -0.180000       12.0110           0
     11492 MEMB     53       OSM      H17F     HAL2     0.900000E-01   1.00800           0
     11493 MEMB     53       OSM      H17G     HAL2     0.900000E-01   1.00800           0
     11494 MEMB     53       OSM      C18F     CTL3    -0.270000       12.0110           0
     11495 MEMB     53       OSM      H18F     HAL3     0.900000E-01   1.00800           0
     11496 MEMB     53       OSM      H18G     HAL3     0.900000E-01   1.00800           0
     11497 MEMB     53       OSM      H18H     HAL3     0.900000E-01   1.00800           0
     11498 MEMB     54       OSM      N        NTL     -0.600000       14.0070           0
     11499 MEMB     54       OSM      C15      CTL5    -0.350000       12.0110           0
     11500 MEMB     54       OSM      H15A     HL       0.250000       1.00800           0
     11501 MEMB     54       OSM      H15B     HL       0.250000       1.00800           0
     11502 MEMB     54       OSM      H15C     HL       0.250000       1.00800           0
     11503 MEMB     54       OSM      C14      CTL5    -0.350000       12.0110           0
     11504 MEMB     54       OSM      H14A     HL       0.250000       1.00800           0
     11505 MEMB     54       OSM      H14B     HL       0.250000       1.00800           0
     11506 MEMB     54       OSM      H14C     HL       0.250000       1.00800           0
     11507 MEMB     54       OSM      C13      CTL5    -0.350000       12.0110           0
     11508 MEMB     54       OSM      H13A     HL       0.250000       1.00800           0
     11509 MEMB     54       OSM      H13B     HL       0.250000       1.00800           0
     11510 MEMB     54       OSM      H13C     HL       0.250000       1.00800           0
     11511 MEMB     54       OSM      C12      CTL2    -0.100000       12.0110           0
     11512 MEMB     54       OSM      H12A     HL       0.250000       1.00800           0
     11513 MEMB     54       OSM      H12B     HL       0.250000       1.00800           0
     11514 MEMB     54       OSM      C11      CTL2    -0.800000E-01   12.0110           0
     11515 MEMB     54       OSM      H11A     HAL2     0.900000E-01   1.00800           0
     11516 MEMB     54       OSM      H11B     HAL2     0.900000E-01   1.00800           0
     11517 MEMB     54       OSM      P        PL       1.500000       30.9740           0
     11518 MEMB     54       OSM      O13      O2L     -0.780000       15.9994           0
     11519 MEMB     54       OSM      O14      O2L     -0.780000       15.9994           0
     11520 MEMB     54       OSM      O11      OSLP    -0.570000       15.9994           0
     11521 MEMB     54       OSM      O12      OSLP    -0.570000       15.9994           0
     11522 MEMB     54       OSM      C1S      CTL2    -0.800000E-01   12.0110           0
     11523 MEMB     54       OSM      H1S      HAL2     0.900000E-01   1.00800           0
     11524 MEMB     54       OSM      H1T      HAL2     0.900000E-01   1.00800           0
     11525 MEMB     54       OSM      NF       NHL     -0.700000       14.0070           0
     11526 MEMB     54       OSM      HNF      H        0.350000       1.00800           0
     11527 MEMB     54       OSM      C2S      CTL1     0.300000       12.0110           0
     11528 MEMB     54       OSM      H2S      HAL1     0.500000E-01   1.00800           0
     11529 MEMB     54       OSM      C3S      CTO1     0.500000       12.0110           0
     11530 MEMB     54       OSM      H3S      HAL1    -0.110000       1.00800           0
     11531 MEMB     54       OSM      O3       OHL     -0.690000       15.9994           0
     11532 MEMB     54       OSM      HO3      HOL      0.300000       1.00800           0
     11533 MEMB     54       OSM      C4S      CEL3    -0.150000       12.0110           0
     11534 MEMB     54       OSM      H4S      HEL1     0.150000       1.00800           0
     11535 MEMB     54       OSM      C5S      CEL3    -0.150000       12.0110           0
     11536 MEMB     54       OSM      H5S      HEL1     0.150000       1.00800           0
     11537 MEMB     54       OSM      C6S      CTL2    -0.180000       12.0110           0
     11538 MEMB     54       OSM      H6S      HAL2     0.900000E-01   1.00800           0
     11539 MEMB     54       OSM      H6T      HAL2     0.900000E-01   1.00800           0
     11540 MEMB     54       OSM      C7S      CTL2    -0.180000       12.0110           0
     11541 MEMB     54       OSM      H7S      HAL2     0.900000E-01   1.00800           0
     11542 MEMB     54       OSM      H7T      HAL2     0.900000E-01   1.00800           0
     11543 MEMB     54       OSM      C8S      CTL2    -0.180000       12.0110           0
     11544 MEMB     54       OSM      H8S      HAL2     0.900000E-01   1.00800           0
     11545 MEMB     54       OSM      H8T      HAL2     0.900000E-01   1.00800           0
     11546 MEMB     54       OSM      C9S      CTL2    -0.180000       12.0110           0
     11547 MEMB     54       OSM      H9S      HAL2     0.900000E-01   1.00800           0
     11548 MEMB     54       OSM      H9T      HAL2     0.900000E-01   1.00800           0
     11549 MEMB     54       OSM      C10S     CTL2    -0.180000       12.0110           0
     11550 MEMB     54       OSM      H10S     HAL2     0.900000E-01   1.00800           0
     11551 MEMB     54       OSM      H10T     HAL2     0.900000E-01   1.00800           0
     11552 MEMB     54       OSM      C11S     CTL2    -0.180000       12.0110           0
     11553 MEMB     54       OSM      H11S     HAL2     0.900000E-01   1.00800           0
     11554 MEMB     54       OSM      H11T     HAL2     0.900000E-01   1.00800           0
     11555 MEMB     54       OSM      C12S     CTL2    -0.180000       12.0110           0
     11556 MEMB     54       OSM      H12S     HAL2     0.900000E-01   1.00800           0
     11557 MEMB     54       OSM      H12T     HAL2     0.900000E-01   1.00800           0
     11558 MEMB     54       OSM      C13S     CTL2    -0.180000       12.0110           0
     11559 MEMB     54       OSM      H13S     HAL2     0.900000E-01   1.00800           0
     11560 MEMB     54       OSM      H13T     HAL2     0.900000E-01   1.00800           0
     11561 MEMB     54       OSM      C14S     CTL2    -0.180000       12.0110           0
     11562 MEMB     54       OSM      H14S     HAL2     0.900000E-01   1.00800           0
     11563 MEMB     54       OSM      H14T     HAL2     0.900000E-01   1.00800           0
     11564 MEMB     54       OSM      C15S     CTL2    -0.180000       12.0110           0
     11565 MEMB     54       OSM      H15S     HAL2     0.900000E-01   1.00800           0
     11566 MEMB     54       OSM      H15T     HAL2     0.900000E-01   1.00800           0
     11567 MEMB     54       OSM      C16S     CTL2    -0.180000       12.0110           0
     11568 MEMB     54       OSM      H16S     HAL2     0.900000E-01   1.00800           0
     11569 MEMB     54       OSM      H16T     HAL2     0.900000E-01   1.00800           0
     11570 MEMB     54       OSM      C17S     CTL2    -0.180000       12.0110           0
     11571 MEMB     54       OSM      H17S     HAL2     0.900000E-01   1.00800           0
     11572 MEMB     54       OSM      H17T     HAL2     0.900000E-01   1.00800           0
     11573 MEMB     54       OSM      C18S     CTL3    -0.270000       12.0110           0
     11574 MEMB     54       OSM      H18S     HAL3     0.900000E-01   1.00800           0
     11575 MEMB     54       OSM      H18T     HAL3     0.900000E-01   1.00800           0
     11576 MEMB     54       OSM      H18U     HAL3     0.900000E-01   1.00800           0
     11577 MEMB     54       OSM      C1F      C        0.550000       12.0110           0
     11578 MEMB     54       OSM      OF       O       -0.600000       15.9994           0
     11579 MEMB     54       OSM      C2F      CTL2    -0.700000E-01   12.0110           0
     11580 MEMB     54       OSM      H2F      HAL2     0.600000E-01   1.00800           0
     11581 MEMB     54       OSM      H2G      HAL2     0.600000E-01   1.00800           0
     11582 MEMB     54       OSM      C3F      CTL2    -0.180000       12.0110           0
     11583 MEMB     54       OSM      H3F      HAL2     0.900000E-01   1.00800           0
     11584 MEMB     54       OSM      H3G      HAL2     0.900000E-01   1.00800           0
     11585 MEMB     54       OSM      C4F      CTL2    -0.180000       12.0110           0
     11586 MEMB     54       OSM      H4F      HAL2     0.900000E-01   1.00800           0
     11587 MEMB     54       OSM      H4G      HAL2     0.900000E-01   1.00800           0
     11588 MEMB     54       OSM      C5F      CTL2    -0.180000       12.0110           0
     11589 MEMB     54       OSM      H5F      HAL2     0.900000E-01   1.00800           0
     11590 MEMB     54       OSM      H5G      HAL2     0.900000E-01   1.00800           0
     11591 MEMB     54       OSM      C6F      CTL2    -0.180000       12.0110           0
     11592 MEMB     54       OSM      H6F      HAL2     0.900000E-01   1.00800           0
     11593 MEMB     54       OSM      H6G      HAL2     0.900000E-01   1.00800           0
     11594 MEMB     54       OSM      C7F      CTL2    -0.180000       12.0110           0
     11595 MEMB     54       OSM      H7F      HAL2     0.900000E-01   1.00800           0
     11596 MEMB     54       OSM      H7G      HAL2     0.900000E-01   1.00800           0
     11597 MEMB     54       OSM      C8F      CTL2    -0.180000       12.0110           0
     11598 MEMB     54       OSM      H8F      HAL2     0.900000E-01   1.00800           0
     11599 MEMB     54       OSM      H8G      HAL2     0.900000E-01   1.00800           0
     11600 MEMB     54       OSM      C9F      CEL1    -0.150000       12.0110           0
     11601 MEMB     54       OSM      H9F      HEL1     0.150000       1.00800           0
     11602 MEMB     54       OSM      C10F     CEL1    -0.150000       12.0110           0
     11603 MEMB     54       OSM      H10F     HEL1     0.150000       1.00800           0
     11604 MEMB     54       OSM      C11F     CTL2    -0.180000       12.0110           0
     11605 MEMB     54       OSM      H11F     HAL2     0.900000E-01   1.00800           0
     11606 MEMB     54       OSM      H11G     HAL2     0.900000E-01   1.00800           0
     11607 MEMB     54       OSM      C12F     CTL2    -0.180000       12.0110           0
     11608 MEMB     54       OSM      H12F     HAL2     0.900000E-01   1.00800           0
     11609 MEMB     54       OSM      H12G     HAL2     0.900000E-01   1.00800           0
     11610 MEMB     54       OSM      C13F     CTL2    -0.180000       12.0110           0
     11611 MEMB     54       OSM      H13F     HAL2     0.900000E-01   1.00800           0
     11612 MEMB     54       OSM      H13G     HAL2     0.900000E-01   1.00800           0
     11613 MEMB     54       OSM      C14F     CTL2    -0.180000       12.0110           0
     11614 MEMB     54       OSM      H14F     HAL2     0.900000E-01   1.00800           0
     11615 MEMB     54       OSM      H14G     HAL2     0.900000E-01   1.00800           0
     11616 MEMB     54       OSM      C15F     CTL2    -0.180000       12.0110           0
     11617 MEMB     54       OSM      H15F     HAL2     0.900000E-01   1.00800           0
     11618 MEMB     54       OSM      H15G     HAL2     0.900000E-01   1.00800           0
     11619 MEMB     54       OSM      C16F     CTL2    -0.180000       12.0110           0
     11620 MEMB     54       OSM      H16F     HAL2     0.900000E-01   1.00800           0
     11621 MEMB     54       OSM      H16G     HAL2     0.900000E-01   1.00800           0
     11622 MEMB     54       OSM      C17F     CTL2    -0.180000       12.0110           0
     11623 MEMB     54       OSM      H17F     HAL2     0.900000E-01   1.00800           0
     11624 MEMB     54       OSM      H17G     HAL2     0.900000E-01   1.00800           0
     11625 MEMB     54       OSM      C18F     CTL3    -0.270000       12.0110           0
     11626 MEMB     54       OSM      H18F     HAL3     0.900000E-01   1.00800           0
     11627 MEMB     54       OSM      H18G     HAL3     0.900000E-01   1.00800           0
     11628 MEMB     54       OSM      H18H     HAL3     0.900000E-01   1.00800           0
     11629 MEMB     55       OSM      N        NTL     -0.600000       14.0070           0
     11630 MEMB     55       OSM      C15      CTL5    -0.350000       12.0110           0
     11631 MEMB     55       OSM      H15A     HL       0.250000       1.00800           0
     11632 MEMB     55       OSM      H15B     HL       0.250000       1.00800           0
     11633 MEMB     55       OSM      H15C     HL       0.250000       1.00800           0
     11634 MEMB     55       OSM      C14      CTL5    -0.350000       12.0110           0
     11635 MEMB     55       OSM      H14A     HL       0.250000       1.00800           0
     11636 MEMB     55       OSM      H14B     HL       0.250000       1.00800           0
     11637 MEMB     55       OSM      H14C     HL       0.250000       1.00800           0
     11638 MEMB     55       OSM      C13      CTL5    -0.350000       12.0110           0
     11639 MEMB     55       OSM      H13A     HL       0.250000       1.00800           0
     11640 MEMB     55       OSM      H13B     HL       0.250000       1.00800           0
     11641 MEMB     55       OSM      H13C     HL       0.250000       1.00800           0
     11642 MEMB     55       OSM      C12      CTL2    -0.100000       12.0110           0
     11643 MEMB     55       OSM      H12A     HL       0.250000       1.00800           0
     11644 MEMB     55       OSM      H12B     HL       0.250000       1.00800           0
     11645 MEMB     55       OSM      C11      CTL2    -0.800000E-01   12.0110           0
     11646 MEMB     55       OSM      H11A     HAL2     0.900000E-01   1.00800           0
     11647 MEMB     55       OSM      H11B     HAL2     0.900000E-01   1.00800           0
     11648 MEMB     55       OSM      P        PL       1.500000       30.9740           0
     11649 MEMB     55       OSM      O13      O2L     -0.780000       15.9994           0
     11650 MEMB     55       OSM      O14      O2L     -0.780000       15.9994           0
     11651 MEMB     55       OSM      O11      OSLP    -0.570000       15.9994           0
     11652 MEMB     55       OSM      O12      OSLP    -0.570000       15.9994           0
     11653 MEMB     55       OSM      C1S      CTL2    -0.800000E-01   12.0110           0
     11654 MEMB     55       OSM      H1S      HAL2     0.900000E-01   1.00800           0
     11655 MEMB     55       OSM      H1T      HAL2     0.900000E-01   1.00800           0
     11656 MEMB     55       OSM      NF       NHL     -0.700000       14.0070           0
     11657 MEMB     55       OSM      HNF      H        0.350000       1.00800           0
     11658 MEMB     55       OSM      C2S      CTL1     0.300000       12.0110           0
     11659 MEMB     55       OSM      H2S      HAL1     0.500000E-01   1.00800           0
     11660 MEMB     55       OSM      C3S      CTO1     0.500000       12.0110           0
     11661 MEMB     55       OSM      H3S      HAL1    -0.110000       1.00800           0
     11662 MEMB     55       OSM      O3       OHL     -0.690000       15.9994           0
     11663 MEMB     55       OSM      HO3      HOL      0.300000       1.00800           0
     11664 MEMB     55       OSM      C4S      CEL3    -0.150000       12.0110           0
     11665 MEMB     55       OSM      H4S      HEL1     0.150000       1.00800           0
     11666 MEMB     55       OSM      C5S      CEL3    -0.150000       12.0110           0
     11667 MEMB     55       OSM      H5S      HEL1     0.150000       1.00800           0
     11668 MEMB     55       OSM      C6S      CTL2    -0.180000       12.0110           0
     11669 MEMB     55       OSM      H6S      HAL2     0.900000E-01   1.00800           0
     11670 MEMB     55       OSM      H6T      HAL2     0.900000E-01   1.00800           0
     11671 MEMB     55       OSM      C7S      CTL2    -0.180000       12.0110           0
     11672 MEMB     55       OSM      H7S      HAL2     0.900000E-01   1.00800           0
     11673 MEMB     55       OSM      H7T      HAL2     0.900000E-01   1.00800           0
     11674 MEMB     55       OSM      C8S      CTL2    -0.180000       12.0110           0
     11675 MEMB     55       OSM      H8S      HAL2     0.900000E-01   1.00800           0
     11676 MEMB     55       OSM      H8T      HAL2     0.900000E-01   1.00800           0
     11677 MEMB     55       OSM      C9S      CTL2    -0.180000       12.0110           0
     11678 MEMB     55       OSM      H9S      HAL2     0.900000E-01   1.00800           0
     11679 MEMB     55       OSM      H9T      HAL2     0.900000E-01   1.00800           0
     11680 MEMB     55       OSM      C10S     CTL2    -0.180000       12.0110           0
     11681 MEMB     55       OSM      H10S     HAL2     0.900000E-01   1.00800           0
     11682 MEMB     55       OSM      H10T     HAL2     0.900000E-01   1.00800           0
     11683 MEMB     55       OSM      C11S     CTL2    -0.180000       12.0110           0
     11684 MEMB     55       OSM      H11S     HAL2     0.900000E-01   1.00800           0
     11685 MEMB     55       OSM      H11T     HAL2     0.900000E-01   1.00800           0
     11686 MEMB     55       OSM      C12S     CTL2    -0.180000       12.0110           0
     11687 MEMB     55       OSM      H12S     HAL2     0.900000E-01   1.00800           0
     11688 MEMB     55       OSM      H12T     HAL2     0.900000E-01   1.00800           0
     11689 MEMB     55       OSM      C13S     CTL2    -0.180000       12.0110           0
     11690 MEMB     55       OSM      H13S     HAL2     0.900000E-01   1.00800           0
     11691 MEMB     55       OSM      H13T     HAL2     0.900000E-01   1.00800           0
     11692 MEMB     55       OSM      C14S     CTL2    -0.180000       12.0110           0
     11693 MEMB     55       OSM      H14S     HAL2     0.900000E-01   1.00800           0
     11694 MEMB     55       OSM      H14T     HAL2     0.900000E-01   1.00800           0
     11695 MEMB     55       OSM      C15S     CTL2    -0.180000       12.0110           0
     11696 MEMB     55       OSM      H15S     HAL2     0.900000E-01   1.00800           0
     11697 MEMB     55       OSM      H15T     HAL2     0.900000E-01   1.00800           0
     11698 MEMB     55       OSM      C16S     CTL2    -0.180000       12.0110           0
     11699 MEMB     55       OSM      H16S     HAL2     0.900000E-01   1.00800           0
     11700 MEMB     55       OSM      H16T     HAL2     0.900000E-01   1.00800           0
     11701 MEMB     55       OSM      C17S     CTL2    -0.180000       12.0110           0
     11702 MEMB     55       OSM      H17S     HAL2     0.900000E-01   1.00800           0
     11703 MEMB     55       OSM      H17T     HAL2     0.900000E-01   1.00800           0
     11704 MEMB     55       OSM      C18S     CTL3    -0.270000       12.0110           0
     11705 MEMB     55       OSM      H18S     HAL3     0.900000E-01   1.00800           0
     11706 MEMB     55       OSM      H18T     HAL3     0.900000E-01   1.00800           0
     11707 MEMB     55       OSM      H18U     HAL3     0.900000E-01   1.00800           0
     11708 MEMB     55       OSM      C1F      C        0.550000       12.0110           0
     11709 MEMB     55       OSM      OF       O       -0.600000       15.9994           0
     11710 MEMB     55       OSM      C2F      CTL2    -0.700000E-01   12.0110           0
     11711 MEMB     55       OSM      H2F      HAL2     0.600000E-01   1.00800           0
     11712 MEMB     55       OSM      H2G      HAL2     0.600000E-01   1.00800           0
     11713 MEMB     55       OSM      C3F      CTL2    -0.180000       12.0110           0
     11714 MEMB     55       OSM      H3F      HAL2     0.900000E-01   1.00800           0
     11715 MEMB     55       OSM      H3G      HAL2     0.900000E-01   1.00800           0
     11716 MEMB     55       OSM      C4F      CTL2    -0.180000       12.0110           0
     11717 MEMB     55       OSM      H4F      HAL2     0.900000E-01   1.00800           0
     11718 MEMB     55       OSM      H4G      HAL2     0.900000E-01   1.00800           0
     11719 MEMB     55       OSM      C5F      CTL2    -0.180000       12.0110           0
     11720 MEMB     55       OSM      H5F      HAL2     0.900000E-01   1.00800           0
     11721 MEMB     55       OSM      H5G      HAL2     0.900000E-01   1.00800           0
     11722 MEMB     55       OSM      C6F      CTL2    -0.180000       12.0110           0
     11723 MEMB     55       OSM      H6F      HAL2     0.900000E-01   1.00800           0
     11724 MEMB     55       OSM      H6G      HAL2     0.900000E-01   1.00800           0
     11725 MEMB     55       OSM      C7F      CTL2    -0.180000       12.0110           0
     11726 MEMB     55       OSM      H7F      HAL2     0.900000E-01   1.00800           0
     11727 MEMB     55       OSM      H7G      HAL2     0.900000E-01   1.00800           0
     11728 MEMB     55       OSM      C8F      CTL2    -0.180000       12.0110           0
     11729 MEMB     55       OSM      H8F      HAL2     0.900000E-01   1.00800           0
     11730 MEMB     55       OSM      H8G      HAL2     0.900000E-01   1.00800           0
     11731 MEMB     55       OSM      C9F      CEL1    -0.150000       12.0110           0
     11732 MEMB     55       OSM      H9F      HEL1     0.150000       1.00800           0
     11733 MEMB     55       OSM      C10F     CEL1    -0.150000       12.0110           0
     11734 MEMB     55       OSM      H10F     HEL1     0.150000       1.00800           0
     11735 MEMB     55       OSM      C11F     CTL2    -0.180000       12.0110           0
     11736 MEMB     55       OSM      H11F     HAL2     0.900000E-01   1.00800           0
     11737 MEMB     55       OSM      H11G     HAL2     0.900000E-01   1.00800           0
     11738 MEMB     55       OSM      C12F     CTL2    -0.180000       12.0110           0
     11739 MEMB     55       OSM      H12F     HAL2     0.900000E-01   1.00800           0
     11740 MEMB     55       OSM      H12G     HAL2     0.900000E-01   1.00800           0
     11741 MEMB     55       OSM      C13F     CTL2    -0.180000       12.0110           0
     11742 MEMB     55       OSM      H13F     HAL2     0.900000E-01   1.00800           0
     11743 MEMB     55       OSM      H13G     HAL2     0.900000E-01   1.00800           0
     11744 MEMB     55       OSM      C14F     CTL2    -0.180000       12.0110           0
     11745 MEMB     55       OSM      H14F     HAL2     0.900000E-01   1.00800           0
     11746 MEMB     55       OSM      H14G     HAL2     0.900000E-01   1.00800           0
     11747 MEMB     55       OSM      C15F     CTL2    -0.180000       12.0110           0
     11748 MEMB     55       OSM      H15F     HAL2     0.900000E-01   1.00800           0
     11749 MEMB     55       OSM      H15G     HAL2     0.900000E-01   1.00800           0
     11750 MEMB     55       OSM      C16F     CTL2    -0.180000       12.0110           0
     11751 MEMB     55       OSM      H16F     HAL2     0.900000E-01   1.00800           0
     11752 MEMB     55       OSM      H16G     HAL2     0.900000E-01   1.00800           0
     11753 MEMB     55       OSM      C17F     CTL2    -0.180000       12.0110           0
     11754 MEMB     55       OSM      H17F     HAL2     0.900000E-01   1.00800           0
     11755 MEMB     55       OSM      H17G     HAL2     0.900000E-01   1.00800           0
     11756 MEMB     55       OSM      C18F     CTL3    -0.270000       12.0110           0
     11757 MEMB     55       OSM      H18F     HAL3     0.900000E-01   1.00800           0
     11758 MEMB     55       OSM      H18G     HAL3     0.900000E-01   1.00800           0
     11759 MEMB     55       OSM      H18H     HAL3     0.900000E-01   1.00800           0
     11760 MEMB     56       OSM      N        NTL     -0.600000       14.0070           0
     11761 MEMB     56       OSM      C15      CTL5    -0.350000       12.0110           0
     11762 MEMB     56       OSM      H15A     HL       0.250000       1.00800           0
     11763 MEMB     56       OSM      H15B     HL       0.250000       1.00800           0
     11764 MEMB     56       OSM      H15C     HL       0.250000       1.00800           0
     11765 MEMB     56       OSM      C14      CTL5    -0.350000       12.0110           0
     11766 MEMB     56       OSM      H14A     HL       0.250000       1.00800           0
     11767 MEMB     56       OSM      H14B     HL       0.250000       1.00800           0
     11768 MEMB     56       OSM      H14C     HL       0.250000       1.00800           0
     11769 MEMB     56       OSM      C13      CTL5    -0.350000       12.0110           0
     11770 MEMB     56       OSM      H13A     HL       0.250000       1.00800           0
     11771 MEMB     56       OSM      H13B     HL       0.250000       1.00800           0
     11772 MEMB     56       OSM      H13C     HL       0.250000       1.00800           0
     11773 MEMB     56       OSM      C12      CTL2    -0.100000       12.0110           0
     11774 MEMB     56       OSM      H12A     HL       0.250000       1.00800           0
     11775 MEMB     56       OSM      H12B     HL       0.250000       1.00800           0
     11776 MEMB     56       OSM      C11      CTL2    -0.800000E-01   12.0110           0
     11777 MEMB     56       OSM      H11A     HAL2     0.900000E-01   1.00800           0
     11778 MEMB     56       OSM      H11B     HAL2     0.900000E-01   1.00800           0
     11779 MEMB     56       OSM      P        PL       1.500000       30.9740           0
     11780 MEMB     56       OSM      O13      O2L     -0.780000       15.9994           0
     11781 MEMB     56       OSM      O14      O2L     -0.780000       15.9994           0
     11782 MEMB     56       OSM      O11      OSLP    -0.570000       15.9994           0
     11783 MEMB     56       OSM      O12      OSLP    -0.570000       15.9994           0
     11784 MEMB     56       OSM      C1S      CTL2    -0.800000E-01   12.0110           0
     11785 MEMB     56       OSM      H1S      HAL2     0.900000E-01   1.00800           0
     11786 MEMB     56       OSM      H1T      HAL2     0.900000E-01   1.00800           0
     11787 MEMB     56       OSM      NF       NHL     -0.700000       14.0070           0
     11788 MEMB     56       OSM      HNF      H        0.350000       1.00800           0
     11789 MEMB     56       OSM      C2S      CTL1     0.300000       12.0110           0
     11790 MEMB     56       OSM      H2S      HAL1     0.500000E-01   1.00800           0
     11791 MEMB     56       OSM      C3S      CTO1     0.500000       12.0110           0
     11792 MEMB     56       OSM      H3S      HAL1    -0.110000       1.00800           0
     11793 MEMB     56       OSM      O3       OHL     -0.690000       15.9994           0
     11794 MEMB     56       OSM      HO3      HOL      0.300000       1.00800           0
     11795 MEMB     56       OSM      C4S      CEL3    -0.150000       12.0110           0
     11796 MEMB     56       OSM      H4S      HEL1     0.150000       1.00800           0
     11797 MEMB     56       OSM      C5S      CEL3    -0.150000       12.0110           0
     11798 MEMB     56       OSM      H5S      HEL1     0.150000       1.00800           0
     11799 MEMB     56       OSM      C6S      CTL2    -0.180000       12.0110           0
     11800 MEMB     56       OSM      H6S      HAL2     0.900000E-01   1.00800           0
     11801 MEMB     56       OSM      H6T      HAL2     0.900000E-01   1.00800           0
     11802 MEMB     56       OSM      C7S      CTL2    -0.180000       12.0110           0
     11803 MEMB     56       OSM      H7S      HAL2     0.900000E-01   1.00800           0
     11804 MEMB     56       OSM      H7T      HAL2     0.900000E-01   1.00800           0
     11805 MEMB     56       OSM      C8S      CTL2    -0.180000       12.0110           0
     11806 MEMB     56       OSM      H8S      HAL2     0.900000E-01   1.00800           0
     11807 MEMB     56       OSM      H8T      HAL2     0.900000E-01   1.00800           0
     11808 MEMB     56       OSM      C9S      CTL2    -0.180000       12.0110           0
     11809 MEMB     56       OSM      H9S      HAL2     0.900000E-01   1.00800           0
     11810 MEMB     56       OSM      H9T      HAL2     0.900000E-01   1.00800           0
     11811 MEMB     56       OSM      C10S     CTL2    -0.180000       12.0110           0
     11812 MEMB     56       OSM      H10S     HAL2     0.900000E-01   1.00800           0
     11813 MEMB     56       OSM      H10T     HAL2     0.900000E-01   1.00800           0
     11814 MEMB     56       OSM      C11S     CTL2    -0.180000       12.0110           0
     11815 MEMB     56       OSM      H11S     HAL2     0.900000E-01   1.00800           0
     11816 MEMB     56       OSM      H11T     HAL2     0.900000E-01   1.00800           0
     11817 MEMB     56       OSM      C12S     CTL2    -0.180000       12.0110           0
     11818 MEMB     56       OSM      H12S     HAL2     0.900000E-01   1.00800           0
     11819 MEMB     56       OSM      H12T     HAL2     0.900000E-01   1.00800           0
     11820 MEMB     56       OSM      C13S     CTL2    -0.180000       12.0110           0
     11821 MEMB     56       OSM      H13S     HAL2     0.900000E-01   1.00800           0
     11822 MEMB     56       OSM      H13T     HAL2     0.900000E-01   1.00800           0
     11823 MEMB     56       OSM      C14S     CTL2    -0.180000       12.0110           0
     11824 MEMB     56       OSM      H14S     HAL2     0.900000E-01   1.00800           0
     11825 MEMB     56       OSM      H14T     HAL2     0.900000E-01   1.00800           0
     11826 MEMB     56       OSM      C15S     CTL2    -0.180000       12.0110           0
     11827 MEMB     56       OSM      H15S     HAL2     0.900000E-01   1.00800           0
     11828 MEMB     56       OSM      H15T     HAL2     0.900000E-01   1.00800           0
     11829 MEMB     56       OSM      C16S     CTL2    -0.180000       12.0110           0
     11830 MEMB     56       OSM      H16S     HAL2     0.900000E-01   1.00800           0
     11831 MEMB     56       OSM      H16T     HAL2     0.900000E-01   1.00800           0
     11832 MEMB     56       OSM      C17S     CTL2    -0.180000       12.0110           0
     11833 MEMB     56       OSM      H17S     HAL2     0.900000E-01   1.00800           0
     11834 MEMB     56       OSM      H17T     HAL2     0.900000E-01   1.00800           0
     11835 MEMB     56       OSM      C18S     CTL3    -0.270000       12.0110           0
     11836 MEMB     56       OSM      H18S     HAL3     0.900000E-01   1.00800           0
     11837 MEMB     56       OSM      H18T     HAL3     0.900000E-01   1.00800           0
     11838 MEMB     56       OSM      H18U     HAL3     0.900000E-01   1.00800           0
     11839 MEMB     56       OSM      C1F      C        0.550000       12.0110           0
     11840 MEMB     56       OSM      OF       O       -0.600000       15.9994           0
     11841 MEMB     56       OSM      C2F      CTL2    -0.700000E-01   12.0110           0
     11842 MEMB     56       OSM      H2F      HAL2     0.600000E-01   1.00800           0
     11843 MEMB     56       OSM      H2G      HAL2     0.600000E-01   1.00800           0
     11844 MEMB     56       OSM      C3F      CTL2    -0.180000       12.0110           0
     11845 MEMB     56       OSM      H3F      HAL2     0.900000E-01   1.00800           0
     11846 MEMB     56       OSM      H3G      HAL2     0.900000E-01   1.00800           0
     11847 MEMB     56       OSM      C4F      CTL2    -0.180000       12.0110           0
     11848 MEMB     56       OSM      H4F      HAL2     0.900000E-01   1.00800           0
     11849 MEMB     56       OSM      H4G      HAL2     0.900000E-01   1.00800           0
     11850 MEMB     56       OSM      C5F      CTL2    -0.180000       12.0110           0
     11851 MEMB     56       OSM      H5F      HAL2     0.900000E-01   1.00800           0
     11852 MEMB     56       OSM      H5G      HAL2     0.900000E-01   1.00800           0
     11853 MEMB     56       OSM      C6F      CTL2    -0.180000       12.0110           0
     11854 MEMB     56       OSM      H6F      HAL2     0.900000E-01   1.00800           0
     11855 MEMB     56       OSM      H6G      HAL2     0.900000E-01   1.00800           0
     11856 MEMB     56       OSM      C7F      CTL2    -0.180000       12.0110           0
     11857 MEMB     56       OSM      H7F      HAL2     0.900000E-01   1.00800           0
     11858 MEMB     56       OSM      H7G      HAL2     0.900000E-01   1.00800           0
     11859 MEMB     56       OSM      C8F      CTL2    -0.180000       12.0110           0
     11860 MEMB     56       OSM      H8F      HAL2     0.900000E-01   1.00800           0
     11861 MEMB     56       OSM      H8G      HAL2     0.900000E-01   1.00800           0
     11862 MEMB     56       OSM      C9F      CEL1    -0.150000       12.0110           0
     11863 MEMB     56       OSM      H9F      HEL1     0.150000       1.00800           0
     11864 MEMB     56       OSM      C10F     CEL1    -0.150000       12.0110           0
     11865 MEMB     56       OSM      H10F     HEL1     0.150000       1.00800           0
     11866 MEMB     56       OSM      C11F     CTL2    -0.180000       12.0110           0
     11867 MEMB     56       OSM      H11F     HAL2     0.900000E-01   1.00800           0
     11868 MEMB     56       OSM      H11G     HAL2     0.900000E-01   1.00800           0
     11869 MEMB     56       OSM      C12F     CTL2    -0.180000       12.0110           0
     11870 MEMB     56       OSM      H12F     HAL2     0.900000E-01   1.00800           0
     11871 MEMB     56       OSM      H12G     HAL2     0.900000E-01   1.00800           0
     11872 MEMB     56       OSM      C13F     CTL2    -0.180000       12.0110           0
     11873 MEMB     56       OSM      H13F     HAL2     0.900000E-01   1.00800           0
     11874 MEMB     56       OSM      H13G     HAL2     0.900000E-01   1.00800           0
     11875 MEMB     56       OSM      C14F     CTL2    -0.180000       12.0110           0
     11876 MEMB     56       OSM      H14F     HAL2     0.900000E-01   1.00800           0
     11877 MEMB     56       OSM      H14G     HAL2     0.900000E-01   1.00800           0
     11878 MEMB     56       OSM      C15F     CTL2    -0.180000       12.0110           0
     11879 MEMB     56       OSM      H15F     HAL2     0.900000E-01   1.00800           0
     11880 MEMB     56       OSM      H15G     HAL2     0.900000E-01   1.00800           0
     11881 MEMB     56       OSM      C16F     CTL2    -0.180000       12.0110           0
     11882 MEMB     56       OSM      H16F     HAL2     0.900000E-01   1.00800           0
     11883 MEMB     56       OSM      H16G     HAL2     0.900000E-01   1.00800           0
     11884 MEMB     56       OSM      C17F     CTL2    -0.180000       12.0110           0
     11885 MEMB     56       OSM      H17F     HAL2     0.900000E-01   1.00800           0
     11886 MEMB     56       OSM      H17G     HAL2     0.900000E-01   1.00800           0
     11887 MEMB     56       OSM      C18F     CTL3    -0.270000       12.0110           0
     11888 MEMB     56       OSM      H18F     HAL3     0.900000E-01   1.00800           0
     11889 MEMB     56       OSM      H18G     HAL3     0.900000E-01   1.00800           0
     11890 MEMB     56       OSM      H18H     HAL3     0.900000E-01   1.00800           0
     11891 MEMB     65       OSM      N        NTL     -0.600000       14.0070           0
     11892 MEMB     65       OSM      C15      CTL5    -0.350000       12.0110           0
     11893 MEMB     65       OSM      H15A     HL       0.250000       1.00800           0
     11894 MEMB     65       OSM      H15B     HL       0.250000       1.00800           0
     11895 MEMB     65       OSM      H15C     HL       0.250000       1.00800           0
     11896 MEMB     65       OSM      C14      CTL5    -0.350000       12.0110           0
     11897 MEMB     65       OSM      H14A     HL       0.250000       1.00800           0
     11898 MEMB     65       OSM      H14B     HL       0.250000       1.00800           0
     11899 MEMB     65       OSM      H14C     HL       0.250000       1.00800           0
     11900 MEMB     65       OSM      C13      CTL5    -0.350000       12.0110           0
     11901 MEMB     65       OSM      H13A     HL       0.250000       1.00800           0
     11902 MEMB     65       OSM      H13B     HL       0.250000       1.00800           0
     11903 MEMB     65       OSM      H13C     HL       0.250000       1.00800           0
     11904 MEMB     65       OSM      C12      CTL2    -0.100000       12.0110           0
     11905 MEMB     65       OSM      H12A     HL       0.250000       1.00800           0
     11906 MEMB     65       OSM      H12B     HL       0.250000       1.00800           0
     11907 MEMB     65       OSM      C11      CTL2    -0.800000E-01   12.0110           0
     11908 MEMB     65       OSM      H11A     HAL2     0.900000E-01   1.00800           0
     11909 MEMB     65       OSM      H11B     HAL2     0.900000E-01   1.00800           0
     11910 MEMB     65       OSM      P        PL       1.500000       30.9740           0
     11911 MEMB     65       OSM      O13      O2L     -0.780000       15.9994           0
     11912 MEMB     65       OSM      O14      O2L     -0.780000       15.9994           0
     11913 MEMB     65       OSM      O11      OSLP    -0.570000       15.9994           0
     11914 MEMB     65       OSM      O12      OSLP    -0.570000       15.9994           0
     11915 MEMB     65       OSM      C1S      CTL2    -0.800000E-01   12.0110           0
     11916 MEMB     65       OSM      H1S      HAL2     0.900000E-01   1.00800           0
     11917 MEMB     65       OSM      H1T      HAL2     0.900000E-01   1.00800           0
     11918 MEMB     65       OSM      NF       NHL     -0.700000       14.0070           0
     11919 MEMB     65       OSM      HNF      H        0.350000       1.00800           0
     11920 MEMB     65       OSM      C2S      CTL1     0.300000       12.0110           0
     11921 MEMB     65       OSM      H2S      HAL1     0.500000E-01   1.00800           0
     11922 MEMB     65       OSM      C3S      CTO1     0.500000       12.0110           0
     11923 MEMB     65       OSM      H3S      HAL1    -0.110000       1.00800           0
     11924 MEMB     65       OSM      O3       OHL     -0.690000       15.9994           0
     11925 MEMB     65       OSM      HO3      HOL      0.300000       1.00800           0
     11926 MEMB     65       OSM      C4S      CEL3    -0.150000       12.0110           0
     11927 MEMB     65       OSM      H4S      HEL1     0.150000       1.00800           0
     11928 MEMB     65       OSM      C5S      CEL3    -0.150000       12.0110           0
     11929 MEMB     65       OSM      H5S      HEL1     0.150000       1.00800           0
     11930 MEMB     65       OSM      C6S      CTL2    -0.180000       12.0110           0
     11931 MEMB     65       OSM      H6S      HAL2     0.900000E-01   1.00800           0
     11932 MEMB     65       OSM      H6T      HAL2     0.900000E-01   1.00800           0
     11933 MEMB     65       OSM      C7S      CTL2    -0.180000       12.0110           0
     11934 MEMB     65       OSM      H7S      HAL2     0.900000E-01   1.00800           0
     11935 MEMB     65       OSM      H7T      HAL2     0.900000E-01   1.00800           0
     11936 MEMB     65       OSM      C8S      CTL2    -0.180000       12.0110           0
     11937 MEMB     65       OSM      H8S      HAL2     0.900000E-01   1.00800           0
     11938 MEMB     65       OSM      H8T      HAL2     0.900000E-01   1.00800           0
     11939 MEMB     65       OSM      C9S      CTL2    -0.180000       12.0110           0
     11940 MEMB     65       OSM      H9S      HAL2     0.900000E-01   1.00800           0
     11941 MEMB     65       OSM      H9T      HAL2     0.900000E-01   1.00800           0
     11942 MEMB     65       OSM      C10S     CTL2    -0.180000       12.0110           0
     11943 MEMB     65       OSM      H10S     HAL2     0.900000E-01   1.00800           0
     11944 MEMB     65       OSM      H10T     HAL2     0.900000E-01   1.00800           0
     11945 MEMB     65       OSM      C11S     CTL2    -0.180000       12.0110           0
     11946 MEMB     65       OSM      H11S     HAL2     0.900000E-01   1.00800           0
     11947 MEMB     65       OSM      H11T     HAL2     0.900000E-01   1.00800           0
     11948 MEMB     65       OSM      C12S     CTL2    -0.180000       12.0110           0
     11949 MEMB     65       OSM      H12S     HAL2     0.900000E-01   1.00800           0
     11950 MEMB     65       OSM      H12T     HAL2     0.900000E-01   1.00800           0
     11951 MEMB     65       OSM      C13S     CTL2    -0.180000       12.0110           0
     11952 MEMB     65       OSM      H13S     HAL2     0.900000E-01   1.00800           0
     11953 MEMB     65       OSM      H13T     HAL2     0.900000E-01   1.00800           0
     11954 MEMB     65       OSM      C14S     CTL2    -0.180000       12.0110           0
     11955 MEMB     65       OSM      H14S     HAL2     0.900000E-01   1.00800           0
     11956 MEMB     65       OSM      H14T     HAL2     0.900000E-01   1.00800           0
     11957 MEMB     65       OSM      C15S     CTL2    -0.180000       12.0110           0
     11958 MEMB     65       OSM      H15S     HAL2     0.900000E-01   1.00800           0
     11959 MEMB     65       OSM      H15T     HAL2     0.900000E-01   1.00800           0
     11960 MEMB     65       OSM      C16S     CTL2    -0.180000       12.0110           0
     11961 MEMB     65       OSM      H16S     HAL2     0.900000E-01   1.00800           0
     11962 MEMB     65       OSM      H16T     HAL2     0.900000E-01   1.00800           0
     11963 MEMB     65       OSM      C17S     CTL2    -0.180000       12.0110           0
     11964 MEMB     65       OSM      H17S     HAL2     0.900000E-01   1.00800           0
     11965 MEMB     65       OSM      H17T     HAL2     0.900000E-01   1.00800           0
     11966 MEMB     65       OSM      C18S     CTL3    -0.270000       12.0110           0
     11967 MEMB     65       OSM      H18S     HAL3     0.900000E-01   1.00800           0
     11968 MEMB     65       OSM      H18T     HAL3     0.900000E-01   1.00800           0
     11969 MEMB     65       OSM      H18U     HAL3     0.900000E-01   1.00800           0
     11970 MEMB     65       OSM      C1F      C        0.550000       12.0110           0
     11971 MEMB     65       OSM      OF       O       -0.600000       15.9994           0
     11972 MEMB     65       OSM      C2F      CTL2    -0.700000E-01   12.0110           0
     11973 MEMB     65       OSM      H2F      HAL2     0.600000E-01   1.00800           0
     11974 MEMB     65       OSM      H2G      HAL2     0.600000E-01   1.00800           0
     11975 MEMB     65       OSM      C3F      CTL2    -0.180000       12.0110           0
     11976 MEMB     65       OSM      H3F      HAL2     0.900000E-01   1.00800           0
     11977 MEMB     65       OSM      H3G      HAL2     0.900000E-01   1.00800           0
     11978 MEMB     65       OSM      C4F      CTL2    -0.180000       12.0110           0
     11979 MEMB     65       OSM      H4F      HAL2     0.900000E-01   1.00800           0
     11980 MEMB     65       OSM      H4G      HAL2     0.900000E-01   1.00800           0
     11981 MEMB     65       OSM      C5F      CTL2    -0.180000       12.0110           0
     11982 MEMB     65       OSM      H5F      HAL2     0.900000E-01   1.00800           0
     11983 MEMB     65       OSM      H5G      HAL2     0.900000E-01   1.00800           0
     11984 MEMB     65       OSM      C6F      CTL2    -0.180000       12.0110           0
     11985 MEMB     65       OSM      H6F      HAL2     0.900000E-01   1.00800           0
     11986 MEMB     65       OSM      H6G      HAL2     0.900000E-01   1.00800           0
     11987 MEMB     65       OSM      C7F      CTL2    -0.180000       12.0110           0
     11988 MEMB     65       OSM      H7F      HAL2     0.900000E-01   1.00800           0
     11989 MEMB     65       OSM      H7G      HAL2     0.900000E-01   1.00800           0
     11990 MEMB     65       OSM      C8F      CTL2    -0.180000       12.0110           0
     11991 MEMB     65       OSM      H8F      HAL2     0.900000E-01   1.00800           0
     11992 MEMB     65       OSM      H8G      HAL2     0.900000E-01   1.00800           0
     11993 MEMB     65       OSM      C9F      CEL1    -0.150000       12.0110           0
     11994 MEMB     65       OSM      H9F      HEL1     0.150000       1.00800           0
     11995 MEMB     65       OSM      C10F     CEL1    -0.150000       12.0110           0
     11996 MEMB     65       OSM      H10F     HEL1     0.150000       1.00800           0
     11997 MEMB     65       OSM      C11F     CTL2    -0.180000       12.0110           0
     11998 MEMB     65       OSM      H11F     HAL2     0.900000E-01   1.00800           0
     11999 MEMB     65       OSM      H11G     HAL2     0.900000E-01   1.00800           0
     12000 MEMB     65       OSM      C12F     CTL2    -0.180000       12.0110           0
     12001 MEMB     65       OSM      H12F     HAL2     0.900000E-01   1.00800           0
     12002 MEMB     65       OSM      H12G     HAL2     0.900000E-01   1.00800           0
     12003 MEMB     65       OSM      C13F     CTL2    -0.180000       12.0110           0
     12004 MEMB     65       OSM      H13F     HAL2     0.900000E-01   1.00800           0
     12005 MEMB     65       OSM      H13G     HAL2     0.900000E-01   1.00800           0
     12006 MEMB     65       OSM      C14F     CTL2    -0.180000       12.0110           0
     12007 MEMB     65       OSM      H14F     HAL2     0.900000E-01   1.00800           0
     12008 MEMB     65       OSM      H14G     HAL2     0.900000E-01   1.00800           0
     12009 MEMB     65       OSM      C15F     CTL2    -0.180000       12.0110           0
     12010 MEMB     65       OSM      H15F     HAL2     0.900000E-01   1.00800           0
     12011 MEMB     65       OSM      H15G     HAL2     0.900000E-01   1.00800           0
     12012 MEMB     65       OSM      C16F     CTL2    -0.180000       12.0110           0
     12013 MEMB     65       OSM      H16F     HAL2     0.900000E-01   1.00800           0
     12014 MEMB     65       OSM      H16G     HAL2     0.900000E-01   1.00800           0
     12015 MEMB     65       OSM      C17F     CTL2    -0.180000       12.0110           0
     12016 MEMB     65       OSM      H17F     HAL2     0.900000E-01   1.00800           0
     12017 MEMB     65       OSM      H17G     HAL2     0.900000E-01   1.00800           0
     12018 MEMB     65       OSM      C18F     CTL3    -0.270000       12.0110           0
     12019 MEMB     65       OSM      H18F     HAL3     0.900000E-01   1.00800           0
     12020 MEMB     65       OSM      H18G     HAL3     0.900000E-01   1.00800           0
     12021 MEMB     65       OSM      H18H     HAL3     0.900000E-01   1.00800           0
     12022 MEMB     69       OSM      N        NTL     -0.600000       14.0070           0
     12023 MEMB     69       OSM      C15      CTL5    -0.350000       12.0110           0
     12024 MEMB     69       OSM      H15A     HL       0.250000       1.00800           0
     12025 MEMB     69       OSM      H15B     HL       0.250000       1.00800           0
     12026 MEMB     69       OSM      H15C     HL       0.250000       1.00800           0
     12027 MEMB     69       OSM      C14      CTL5    -0.350000       12.0110           0
     12028 MEMB     69       OSM      H14A     HL       0.250000       1.00800           0
     12029 MEMB     69       OSM      H14B     HL       0.250000       1.00800           0
     12030 MEMB     69       OSM      H14C     HL       0.250000       1.00800           0
     12031 MEMB     69       OSM      C13      CTL5    -0.350000       12.0110           0
     12032 MEMB     69       OSM      H13A     HL       0.250000       1.00800           0
     12033 MEMB     69       OSM      H13B     HL       0.250000       1.00800           0
     12034 MEMB     69       OSM      H13C     HL       0.250000       1.00800           0
     12035 MEMB     69       OSM      C12      CTL2    -0.100000       12.0110           0
     12036 MEMB     69       OSM      H12A     HL       0.250000       1.00800           0
     12037 MEMB     69       OSM      H12B     HL       0.250000       1.00800           0
     12038 MEMB     69       OSM      C11      CTL2    -0.800000E-01   12.0110           0
     12039 MEMB     69       OSM      H11A     HAL2     0.900000E-01   1.00800           0
     12040 MEMB     69       OSM      H11B     HAL2     0.900000E-01   1.00800           0
     12041 MEMB     69       OSM      P        PL       1.500000       30.9740           0
     12042 MEMB     69       OSM      O13      O2L     -0.780000       15.9994           0
     12043 MEMB     69       OSM      O14      O2L     -0.780000       15.9994           0
     12044 MEMB     69       OSM      O11      OSLP    -0.570000       15.9994           0
     12045 MEMB     69       OSM      O12      OSLP    -0.570000       15.9994           0
     12046 MEMB     69       OSM      C1S      CTL2    -0.800000E-01   12.0110           0
     12047 MEMB     69       OSM      H1S      HAL2     0.900000E-01   1.00800           0
     12048 MEMB     69       OSM      H1T      HAL2     0.900000E-01   1.00800           0
     12049 MEMB     69       OSM      NF       NHL     -0.700000       14.0070           0
     12050 MEMB     69       OSM      HNF      H        0.350000       1.00800           0
     12051 MEMB     69       OSM      C2S      CTL1     0.300000       12.0110           0
     12052 MEMB     69       OSM      H2S      HAL1     0.500000E-01   1.00800           0
     12053 MEMB     69       OSM      C3S      CTO1     0.500000       12.0110           0
     12054 MEMB     69       OSM      H3S      HAL1    -0.110000       1.00800           0
     12055 MEMB     69       OSM      O3       OHL     -0.690000       15.9994           0
     12056 MEMB     69       OSM      HO3      HOL      0.300000       1.00800           0
     12057 MEMB     69       OSM      C4S      CEL3    -0.150000       12.0110           0
     12058 MEMB     69       OSM      H4S      HEL1     0.150000       1.00800           0
     12059 MEMB     69       OSM      C5S      CEL3    -0.150000       12.0110           0
     12060 MEMB     69       OSM      H5S      HEL1     0.150000       1.00800           0
     12061 MEMB     69       OSM      C6S      CTL2    -0.180000       12.0110           0
     12062 MEMB     69       OSM      H6S      HAL2     0.900000E-01   1.00800           0
     12063 MEMB     69       OSM      H6T      HAL2     0.900000E-01   1.00800           0
     12064 MEMB     69       OSM      C7S      CTL2    -0.180000       12.0110           0
     12065 MEMB     69       OSM      H7S      HAL2     0.900000E-01   1.00800           0
     12066 MEMB     69       OSM      H7T      HAL2     0.900000E-01   1.00800           0
     12067 MEMB     69       OSM      C8S      CTL2    -0.180000       12.0110           0
     12068 MEMB     69       OSM      H8S      HAL2     0.900000E-01   1.00800           0
     12069 MEMB     69       OSM      H8T      HAL2     0.900000E-01   1.00800           0
     12070 MEMB     69       OSM      C9S      CTL2    -0.180000       12.0110           0
     12071 MEMB     69       OSM      H9S      HAL2     0.900000E-01   1.00800           0
     12072 MEMB     69       OSM      H9T      HAL2     0.900000E-01   1.00800           0
     12073 MEMB     69       OSM      C10S     CTL2    -0.180000       12.0110           0
     12074 MEMB     69       OSM      H10S     HAL2     0.900000E-01   1.00800           0
     12075 MEMB     69       OSM      H10T     HAL2     0.900000E-01   1.00800           0
     12076 MEMB     69       OSM      C11S     CTL2    -0.180000       12.0110           0
     12077 MEMB     69       OSM      H11S     HAL2     0.900000E-01   1.00800           0
     12078 MEMB     69       OSM      H11T     HAL2     0.900000E-01   1.00800           0
     12079 MEMB     69       OSM      C12S     CTL2    -0.180000       12.0110           0
     12080 MEMB     69       OSM      H12S     HAL2     0.900000E-01   1.00800           0
     12081 MEMB     69       OSM      H12T     HAL2     0.900000E-01   1.00800           0
     12082 MEMB     69       OSM      C13S     CTL2    -0.180000       12.0110           0
     12083 MEMB     69       OSM      H13S     HAL2     0.900000E-01   1.00800           0
     12084 MEMB     69       OSM      H13T     HAL2     0.900000E-01   1.00800           0
     12085 MEMB     69       OSM      C14S     CTL2    -0.180000       12.0110           0
     12086 MEMB     69       OSM      H14S     HAL2     0.900000E-01   1.00800           0
     12087 MEMB     69       OSM      H14T     HAL2     0.900000E-01   1.00800           0
     12088 MEMB     69       OSM      C15S     CTL2    -0.180000       12.0110           0
     12089 MEMB     69       OSM      H15S     HAL2     0.900000E-01   1.00800           0
     12090 MEMB     69       OSM      H15T     HAL2     0.900000E-01   1.00800           0
     12091 MEMB     69       OSM      C16S     CTL2    -0.180000       12.0110           0
     12092 MEMB     69       OSM      H16S     HAL2     0.900000E-01   1.00800           0
     12093 MEMB     69       OSM      H16T     HAL2     0.900000E-01   1.00800           0
     12094 MEMB     69       OSM      C17S     CTL2    -0.180000       12.0110           0
     12095 MEMB     69       OSM      H17S     HAL2     0.900000E-01   1.00800           0
     12096 MEMB     69       OSM      H17T     HAL2     0.900000E-01   1.00800           0
     12097 MEMB     69       OSM      C18S     CTL3    -0.270000       12.0110           0
     12098 MEMB     69       OSM      H18S     HAL3     0.900000E-01   1.00800           0
     12099 MEMB     69       OSM      H18T     HAL3     0.900000E-01   1.00800           0
     12100 MEMB     69       OSM      H18U     HAL3     0.900000E-01   1.00800           0
     12101 MEMB     69       OSM      C1F      C        0.550000       12.0110           0
     12102 MEMB     69       OSM      OF       O       -0.600000       15.9994           0
     12103 MEMB     69       OSM      C2F      CTL2    -0.700000E-01   12.0110           0
     12104 MEMB     69       OSM      H2F      HAL2     0.600000E-01   1.00800           0
     12105 MEMB     69       OSM      H2G      HAL2     0.600000E-01   1.00800           0
     12106 MEMB     69       OSM      C3F      CTL2    -0.180000       12.0110           0
     12107 MEMB     69       OSM      H3F      HAL2     0.900000E-01   1.00800           0
     12108 MEMB     69       OSM      H3G      HAL2     0.900000E-01   1.00800           0
     12109 MEMB     69       OSM      C4F      CTL2    -0.180000       12.0110           0
     12110 MEMB     69       OSM      H4F      HAL2     0.900000E-01   1.00800           0
     12111 MEMB     69       OSM      H4G      HAL2     0.900000E-01   1.00800           0
     12112 MEMB     69       OSM      C5F      CTL2    -0.180000       12.0110           0
     12113 MEMB     69       OSM      H5F      HAL2     0.900000E-01   1.00800           0
     12114 MEMB     69       OSM      H5G      HAL2     0.900000E-01   1.00800           0
     12115 MEMB     69       OSM      C6F      CTL2    -0.180000       12.0110           0
     12116 MEMB     69       OSM      H6F      HAL2     0.900000E-01   1.00800           0
     12117 MEMB     69       OSM      H6G      HAL2     0.900000E-01   1.00800           0
     12118 MEMB     69       OSM      C7F      CTL2    -0.180000       12.0110           0
     12119 MEMB     69       OSM      H7F      HAL2     0.900000E-01   1.00800           0
     12120 MEMB     69       OSM      H7G      HAL2     0.900000E-01   1.00800           0
     12121 MEMB     69       OSM      C8F      CTL2    -0.180000       12.0110           0
     12122 MEMB     69       OSM      H8F      HAL2     0.900000E-01   1.00800           0
     12123 MEMB     69       OSM      H8G      HAL2     0.900000E-01   1.00800           0
     12124 MEMB     69       OSM      C9F      CEL1    -0.150000       12.0110           0
     12125 MEMB     69       OSM      H9F      HEL1     0.150000       1.00800           0
     12126 MEMB     69       OSM      C10F     CEL1    -0.150000       12.0110           0
     12127 MEMB     69       OSM      H10F     HEL1     0.150000       1.00800           0
     12128 MEMB     69       OSM      C11F     CTL2    -0.180000       12.0110           0
     12129 MEMB     69       OSM      H11F     HAL2     0.900000E-01   1.00800           0
     12130 MEMB     69       OSM      H11G     HAL2     0.900000E-01   1.00800           0
     12131 MEMB     69       OSM      C12F     CTL2    -0.180000       12.0110           0
     12132 MEMB     69       OSM      H12F     HAL2     0.900000E-01   1.00800           0
     12133 MEMB     69       OSM      H12G     HAL2     0.900000E-01   1.00800           0
     12134 MEMB     69       OSM      C13F     CTL2    -0.180000       12.0110           0
     12135 MEMB     69       OSM      H13F     HAL2     0.900000E-01   1.00800           0
     12136 MEMB     69       OSM      H13G     HAL2     0.900000E-01   1.00800           0
     12137 MEMB     69       OSM      C14F     CTL2    -0.180000       12.0110           0
     12138 MEMB     69       OSM      H14F     HAL2     0.900000E-01   1.00800           0
     12139 MEMB     69       OSM      H14G     HAL2     0.900000E-01   1.00800           0
     12140 MEMB     69       OSM      C15F     CTL2    -0.180000       12.0110           0
     12141 MEMB     69       OSM      H15F     HAL2     0.900000E-01   1.00800           0
     12142 MEMB     69       OSM      H15G     HAL2     0.900000E-01   1.00800           0
     12143 MEMB     69       OSM      C16F     CTL2    -0.180000       12.0110           0
     12144 MEMB     69       OSM      H16F     HAL2     0.900000E-01   1.00800           0
     12145 MEMB     69       OSM      H16G     HAL2     0.900000E-01   1.00800           0
     12146 MEMB     69       OSM      C17F     CTL2    -0.180000       12.0110           0
     12147 MEMB     69       OSM      H17F     HAL2     0.900000E-01   1.00800           0
     12148 MEMB     69       OSM      H17G     HAL2     0.900000E-01   1.00800           0
     12149 MEMB     69       OSM      C18F     CTL3    -0.270000       12.0110           0
     12150 MEMB     69       OSM      H18F     HAL3     0.900000E-01   1.00800           0
     12151 MEMB     69       OSM      H18G     HAL3     0.900000E-01   1.00800           0
     12152 MEMB     69       OSM      H18H     HAL3     0.900000E-01   1.00800           0
     12153 MEMB     70       OSM      N        NTL     -0.600000       14.0070           0
     12154 MEMB     70       OSM      C15      CTL5    -0.350000       12.0110           0
     12155 MEMB     70       OSM      H15A     HL       0.250000       1.00800           0
     12156 MEMB     70       OSM      H15B     HL       0.250000       1.00800           0
     12157 MEMB     70       OSM      H15C     HL       0.250000       1.00800           0
     12158 MEMB     70       OSM      C14      CTL5    -0.350000       12.0110           0
     12159 MEMB     70       OSM      H14A     HL       0.250000       1.00800           0
     12160 MEMB     70       OSM      H14B     HL       0.250000       1.00800           0
     12161 MEMB     70       OSM      H14C     HL       0.250000       1.00800           0
     12162 MEMB     70       OSM      C13      CTL5    -0.350000       12.0110           0
     12163 MEMB     70       OSM      H13A     HL       0.250000       1.00800           0
     12164 MEMB     70       OSM      H13B     HL       0.250000       1.00800           0
     12165 MEMB     70       OSM      H13C     HL       0.250000       1.00800           0
     12166 MEMB     70       OSM      C12      CTL2    -0.100000       12.0110           0
     12167 MEMB     70       OSM      H12A     HL       0.250000       1.00800           0
     12168 MEMB     70       OSM      H12B     HL       0.250000       1.00800           0
     12169 MEMB     70       OSM      C11      CTL2    -0.800000E-01   12.0110           0
     12170 MEMB     70       OSM      H11A     HAL2     0.900000E-01   1.00800           0
     12171 MEMB     70       OSM      H11B     HAL2     0.900000E-01   1.00800           0
     12172 MEMB     70       OSM      P        PL       1.500000       30.9740           0
     12173 MEMB     70       OSM      O13      O2L     -0.780000       15.9994           0
     12174 MEMB     70       OSM      O14      O2L     -0.780000       15.9994           0
     12175 MEMB     70       OSM      O11      OSLP    -0.570000       15.9994           0
     12176 MEMB     70       OSM      O12      OSLP    -0.570000       15.9994           0
     12177 MEMB     70       OSM      C1S      CTL2    -0.800000E-01   12.0110           0
     12178 MEMB     70       OSM      H1S      HAL2     0.900000E-01   1.00800           0
     12179 MEMB     70       OSM      H1T      HAL2     0.900000E-01   1.00800           0
     12180 MEMB     70       OSM      NF       NHL     -0.700000       14.0070           0
     12181 MEMB     70       OSM      HNF      H        0.350000       1.00800           0
     12182 MEMB     70       OSM      C2S      CTL1     0.300000       12.0110           0
     12183 MEMB     70       OSM      H2S      HAL1     0.500000E-01   1.00800           0
     12184 MEMB     70       OSM      C3S      CTO1     0.500000       12.0110           0
     12185 MEMB     70       OSM      H3S      HAL1    -0.110000       1.00800           0
     12186 MEMB     70       OSM      O3       OHL     -0.690000       15.9994           0
     12187 MEMB     70       OSM      HO3      HOL      0.300000       1.00800           0
     12188 MEMB     70       OSM      C4S      CEL3    -0.150000       12.0110           0
     12189 MEMB     70       OSM      H4S      HEL1     0.150000       1.00800           0
     12190 MEMB     70       OSM      C5S      CEL3    -0.150000       12.0110           0
     12191 MEMB     70       OSM      H5S      HEL1     0.150000       1.00800           0
     12192 MEMB     70       OSM      C6S      CTL2    -0.180000       12.0110           0
     12193 MEMB     70       OSM      H6S      HAL2     0.900000E-01   1.00800           0
     12194 MEMB     70       OSM      H6T      HAL2     0.900000E-01   1.00800           0
     12195 MEMB     70       OSM      C7S      CTL2    -0.180000       12.0110           0
     12196 MEMB     70       OSM      H7S      HAL2     0.900000E-01   1.00800           0
     12197 MEMB     70       OSM      H7T      HAL2     0.900000E-01   1.00800           0
     12198 MEMB     70       OSM      C8S      CTL2    -0.180000       12.0110           0
     12199 MEMB     70       OSM      H8S      HAL2     0.900000E-01   1.00800           0
     12200 MEMB     70       OSM      H8T      HAL2     0.900000E-01   1.00800           0
     12201 MEMB     70       OSM      C9S      CTL2    -0.180000       12.0110           0
     12202 MEMB     70       OSM      H9S      HAL2     0.900000E-01   1.00800           0
     12203 MEMB     70       OSM      H9T      HAL2     0.900000E-01   1.00800           0
     12204 MEMB     70       OSM      C10S     CTL2    -0.180000       12.0110           0
     12205 MEMB     70       OSM      H10S     HAL2     0.900000E-01   1.00800           0
     12206 MEMB     70       OSM      H10T     HAL2     0.900000E-01   1.00800           0
     12207 MEMB     70       OSM      C11S     CTL2    -0.180000       12.0110           0
     12208 MEMB     70       OSM      H11S     HAL2     0.900000E-01   1.00800           0
     12209 MEMB     70       OSM      H11T     HAL2     0.900000E-01   1.00800           0
     12210 MEMB     70       OSM      C12S     CTL2    -0.180000       12.0110           0
     12211 MEMB     70       OSM      H12S     HAL2     0.900000E-01   1.00800           0
     12212 MEMB     70       OSM      H12T     HAL2     0.900000E-01   1.00800           0
     12213 MEMB     70       OSM      C13S     CTL2    -0.180000       12.0110           0
     12214 MEMB     70       OSM      H13S     HAL2     0.900000E-01   1.00800           0
     12215 MEMB     70       OSM      H13T     HAL2     0.900000E-01   1.00800           0
     12216 MEMB     70       OSM      C14S     CTL2    -0.180000       12.0110           0
     12217 MEMB     70       OSM      H14S     HAL2     0.900000E-01   1.00800           0
     12218 MEMB     70       OSM      H14T     HAL2     0.900000E-01   1.00800           0
     12219 MEMB     70       OSM      C15S     CTL2    -0.180000       12.0110           0
     12220 MEMB     70       OSM      H15S     HAL2     0.900000E-01   1.00800           0
     12221 MEMB     70       OSM      H15T     HAL2     0.900000E-01   1.00800           0
     12222 MEMB     70       OSM      C16S     CTL2    -0.180000       12.0110           0
     12223 MEMB     70       OSM      H16S     HAL2     0.900000E-01   1.00800           0
     12224 MEMB     70       OSM      H16T     HAL2     0.900000E-01   1.00800           0
     12225 MEMB     70       OSM      C17S     CTL2    -0.180000       12.0110           0
     12226 MEMB     70       OSM      H17S     HAL2     0.900000E-01   1.00800           0
     12227 MEMB     70       OSM      H17T     HAL2     0.900000E-01   1.00800           0
     12228 MEMB     70       OSM      C18S     CTL3    -0.270000       12.0110           0
     12229 MEMB     70       OSM      H18S     HAL3     0.900000E-01   1.00800           0
     12230 MEMB     70       OSM      H18T     HAL3     0.900000E-01   1.00800           0
     12231 MEMB     70       OSM      H18U     HAL3     0.900000E-01   1.00800           0
     12232 MEMB     70       OSM      C1F      C        0.550000       12.0110           0
     12233 MEMB     70       OSM      OF       O       -0.600000       15.9994           0
     12234 MEMB     70       OSM      C2F      CTL2    -0.700000E-01   12.0110           0
     12235 MEMB     70       OSM      H2F      HAL2     0.600000E-01   1.00800           0
     12236 MEMB     70       OSM      H2G      HAL2     0.600000E-01   1.00800           0
     12237 MEMB     70       OSM      C3F      CTL2    -0.180000       12.0110           0
     12238 MEMB     70       OSM      H3F      HAL2     0.900000E-01   1.00800           0
     12239 MEMB     70       OSM      H3G      HAL2     0.900000E-01   1.00800           0
     12240 MEMB     70       OSM      C4F      CTL2    -0.180000       12.0110           0
     12241 MEMB     70       OSM      H4F      HAL2     0.900000E-01   1.00800           0
     12242 MEMB     70       OSM      H4G      HAL2     0.900000E-01   1.00800           0
     12243 MEMB     70       OSM      C5F      CTL2    -0.180000       12.0110           0
     12244 MEMB     70       OSM      H5F      HAL2     0.900000E-01   1.00800           0
     12245 MEMB     70       OSM      H5G      HAL2     0.900000E-01   1.00800           0
     12246 MEMB     70       OSM      C6F      CTL2    -0.180000       12.0110           0
     12247 MEMB     70       OSM      H6F      HAL2     0.900000E-01   1.00800           0
     12248 MEMB     70       OSM      H6G      HAL2     0.900000E-01   1.00800           0
     12249 MEMB     70       OSM      C7F      CTL2    -0.180000       12.0110           0
     12250 MEMB     70       OSM      H7F      HAL2     0.900000E-01   1.00800           0
     12251 MEMB     70       OSM      H7G      HAL2     0.900000E-01   1.00800           0
     12252 MEMB     70       OSM      C8F      CTL2    -0.180000       12.0110           0
     12253 MEMB     70       OSM      H8F      HAL2     0.900000E-01   1.00800           0
     12254 MEMB     70       OSM      H8G      HAL2     0.900000E-01   1.00800           0
     12255 MEMB     70       OSM      C9F      CEL1    -0.150000       12.0110           0
     12256 MEMB     70       OSM      H9F      HEL1     0.150000       1.00800           0
     12257 MEMB     70       OSM      C10F     CEL1    -0.150000       12.0110           0
     12258 MEMB     70       OSM      H10F     HEL1     0.150000       1.00800           0
     12259 MEMB     70       OSM      C11F     CTL2    -0.180000       12.0110           0
     12260 MEMB     70       OSM      H11F     HAL2     0.900000E-01   1.00800           0
     12261 MEMB     70       OSM      H11G     HAL2     0.900000E-01   1.00800           0
     12262 MEMB     70       OSM      C12F     CTL2    -0.180000       12.0110           0
     12263 MEMB     70       OSM      H12F     HAL2     0.900000E-01   1.00800           0
     12264 MEMB     70       OSM      H12G     HAL2     0.900000E-01   1.00800           0
     12265 MEMB     70       OSM      C13F     CTL2    -0.180000       12.0110           0
     12266 MEMB     70       OSM      H13F     HAL2     0.900000E-01   1.00800           0
     12267 MEMB     70       OSM      H13G     HAL2     0.900000E-01   1.00800           0
     12268 MEMB     70       OSM      C14F     CTL2    -0.180000       12.0110           0
     12269 MEMB     70       OSM      H14F     HAL2     0.900000E-01   1.00800           0
     12270 MEMB     70       OSM      H14G     HAL2     0.900000E-01   1.00800           0
     12271 MEMB     70       OSM      C15F     CTL2    -0.180000       12.0110           0
     12272 MEMB     70       OSM      H15F     HAL2     0.900000E-01   1.00800           0
     12273 MEMB     70       OSM      H15G     HAL2     0.900000E-01   1.00800           0
     12274 MEMB     70       OSM      C16F     CTL2    -0.180000       12.0110           0
     12275 MEMB     70       OSM      H16F     HAL2     0.900000E-01   1.00800           0
     12276 MEMB     70       OSM      H16G     HAL2     0.900000E-01   1.00800           0
     12277 MEMB     70       OSM      C17F     CTL2    -0.180000       12.0110           0
     12278 MEMB     70       OSM      H17F     HAL2     0.900000E-01   1.00800           0
     12279 MEMB     70       OSM      H17G     HAL2     0.900000E-01   1.00800           0
     12280 MEMB     70       OSM      C18F     CTL3    -0.270000       12.0110           0
     12281 MEMB     70       OSM      H18F     HAL3     0.900000E-01   1.00800           0
     12282 MEMB     70       OSM      H18G     HAL3     0.900000E-01   1.00800           0
     12283 MEMB     70       OSM      H18H     HAL3     0.900000E-01   1.00800           0
     12284 MEMB     71       OSM      N        NTL     -0.600000       14.0070           0
     12285 MEMB     71       OSM      C15      CTL5    -0.350000       12.0110           0
     12286 MEMB     71       OSM      H15A     HL       0.250000       1.00800           0
     12287 MEMB     71       OSM      H15B     HL       0.250000       1.00800           0
     12288 MEMB     71       OSM      H15C     HL       0.250000       1.00800           0
     12289 MEMB     71       OSM      C14      CTL5    -0.350000       12.0110           0
     12290 MEMB     71       OSM      H14A     HL       0.250000       1.00800           0
     12291 MEMB     71       OSM      H14B     HL       0.250000       1.00800           0
     12292 MEMB     71       OSM      H14C     HL       0.250000       1.00800           0
     12293 MEMB     71       OSM      C13      CTL5    -0.350000       12.0110           0
     12294 MEMB     71       OSM      H13A     HL       0.250000       1.00800           0
     12295 MEMB     71       OSM      H13B     HL       0.250000       1.00800           0
     12296 MEMB     71       OSM      H13C     HL       0.250000       1.00800           0
     12297 MEMB     71       OSM      C12      CTL2    -0.100000       12.0110           0
     12298 MEMB     71       OSM      H12A     HL       0.250000       1.00800           0
     12299 MEMB     71       OSM      H12B     HL       0.250000       1.00800           0
     12300 MEMB     71       OSM      C11      CTL2    -0.800000E-01   12.0110           0
     12301 MEMB     71       OSM      H11A     HAL2     0.900000E-01   1.00800           0
     12302 MEMB     71       OSM      H11B     HAL2     0.900000E-01   1.00800           0
     12303 MEMB     71       OSM      P        PL       1.500000       30.9740           0
     12304 MEMB     71       OSM      O13      O2L     -0.780000       15.9994           0
     12305 MEMB     71       OSM      O14      O2L     -0.780000       15.9994           0
     12306 MEMB     71       OSM      O11      OSLP    -0.570000       15.9994           0
     12307 MEMB     71       OSM      O12      OSLP    -0.570000       15.9994           0
     12308 MEMB     71       OSM      C1S      CTL2    -0.800000E-01   12.0110           0
     12309 MEMB     71       OSM      H1S      HAL2     0.900000E-01   1.00800           0
     12310 MEMB     71       OSM      H1T      HAL2     0.900000E-01   1.00800           0
     12311 MEMB     71       OSM      NF       NHL     -0.700000       14.0070           0
     12312 MEMB     71       OSM      HNF      H        0.350000       1.00800           0
     12313 MEMB     71       OSM      C2S      CTL1     0.300000       12.0110           0
     12314 MEMB     71       OSM      H2S      HAL1     0.500000E-01   1.00800           0
     12315 MEMB     71       OSM      C3S      CTO1     0.500000       12.0110           0
     12316 MEMB     71       OSM      H3S      HAL1    -0.110000       1.00800           0
     12317 MEMB     71       OSM      O3       OHL     -0.690000       15.9994           0
     12318 MEMB     71       OSM      HO3      HOL      0.300000       1.00800           0
     12319 MEMB     71       OSM      C4S      CEL3    -0.150000       12.0110           0
     12320 MEMB     71       OSM      H4S      HEL1     0.150000       1.00800           0
     12321 MEMB     71       OSM      C5S      CEL3    -0.150000       12.0110           0
     12322 MEMB     71       OSM      H5S      HEL1     0.150000       1.00800           0
     12323 MEMB     71       OSM      C6S      CTL2    -0.180000       12.0110           0
     12324 MEMB     71       OSM      H6S      HAL2     0.900000E-01   1.00800           0
     12325 MEMB     71       OSM      H6T      HAL2     0.900000E-01   1.00800           0
     12326 MEMB     71       OSM      C7S      CTL2    -0.180000       12.0110           0
     12327 MEMB     71       OSM      H7S      HAL2     0.900000E-01   1.00800           0
     12328 MEMB     71       OSM      H7T      HAL2     0.900000E-01   1.00800           0
     12329 MEMB     71       OSM      C8S      CTL2    -0.180000       12.0110           0
     12330 MEMB     71       OSM      H8S      HAL2     0.900000E-01   1.00800           0
     12331 MEMB     71       OSM      H8T      HAL2     0.900000E-01   1.00800           0
     12332 MEMB     71       OSM      C9S      CTL2    -0.180000       12.0110           0
     12333 MEMB     71       OSM      H9S      HAL2     0.900000E-01   1.00800           0
     12334 MEMB     71       OSM      H9T      HAL2     0.900000E-01   1.00800           0
     12335 MEMB     71       OSM      C10S     CTL2    -0.180000       12.0110           0
     12336 MEMB     71       OSM      H10S     HAL2     0.900000E-01   1.00800           0
     12337 MEMB     71       OSM      H10T     HAL2     0.900000E-01   1.00800           0
     12338 MEMB     71       OSM      C11S     CTL2    -0.180000       12.0110           0
     12339 MEMB     71       OSM      H11S     HAL2     0.900000E-01   1.00800           0
     12340 MEMB     71       OSM      H11T     HAL2     0.900000E-01   1.00800           0
     12341 MEMB     71       OSM      C12S     CTL2    -0.180000       12.0110           0
     12342 MEMB     71       OSM      H12S     HAL2     0.900000E-01   1.00800           0
     12343 MEMB     71       OSM      H12T     HAL2     0.900000E-01   1.00800           0
     12344 MEMB     71       OSM      C13S     CTL2    -0.180000       12.0110           0
     12345 MEMB     71       OSM      H13S     HAL2     0.900000E-01   1.00800           0
     12346 MEMB     71       OSM      H13T     HAL2     0.900000E-01   1.00800           0
     12347 MEMB     71       OSM      C14S     CTL2    -0.180000       12.0110           0
     12348 MEMB     71       OSM      H14S     HAL2     0.900000E-01   1.00800           0
     12349 MEMB     71       OSM      H14T     HAL2     0.900000E-01   1.00800           0
     12350 MEMB     71       OSM      C15S     CTL2    -0.180000       12.0110           0
     12351 MEMB     71       OSM      H15S     HAL2     0.900000E-01   1.00800           0
     12352 MEMB     71       OSM      H15T     HAL2     0.900000E-01   1.00800           0
     12353 MEMB     71       OSM      C16S     CTL2    -0.180000       12.0110           0
     12354 MEMB     71       OSM      H16S     HAL2     0.900000E-01   1.00800           0
     12355 MEMB     71       OSM      H16T     HAL2     0.900000E-01   1.00800           0
     12356 MEMB     71       OSM      C17S     CTL2    -0.180000       12.0110           0
     12357 MEMB     71       OSM      H17S     HAL2     0.900000E-01   1.00800           0
     12358 MEMB     71       OSM      H17T     HAL2     0.900000E-01   1.00800           0
     12359 MEMB     71       OSM      C18S     CTL3    -0.270000       12.0110           0
     12360 MEMB     71       OSM      H18S     HAL3     0.900000E-01   1.00800           0
     12361 MEMB     71       OSM      H18T     HAL3     0.900000E-01   1.00800           0
     12362 MEMB     71       OSM      H18U     HAL3     0.900000E-01   1.00800           0
     12363 MEMB     71       OSM      C1F      C        0.550000       12.0110           0
     12364 MEMB     71       OSM      OF       O       -0.600000       15.9994           0
     12365 MEMB     71       OSM      C2F      CTL2    -0.700000E-01   12.0110           0
     12366 MEMB     71       OSM      H2F      HAL2     0.600000E-01   1.00800           0
     12367 MEMB     71       OSM      H2G      HAL2     0.600000E-01   1.00800           0
     12368 MEMB     71       OSM      C3F      CTL2    -0.180000       12.0110           0
     12369 MEMB     71       OSM      H3F      HAL2     0.900000E-01   1.00800           0
     12370 MEMB     71       OSM      H3G      HAL2     0.900000E-01   1.00800           0
     12371 MEMB     71       OSM      C4F      CTL2    -0.180000       12.0110           0
     12372 MEMB     71       OSM      H4F      HAL2     0.900000E-01   1.00800           0
     12373 MEMB     71       OSM      H4G      HAL2     0.900000E-01   1.00800           0
     12374 MEMB     71       OSM      C5F      CTL2    -0.180000       12.0110           0
     12375 MEMB     71       OSM      H5F      HAL2     0.900000E-01   1.00800           0
     12376 MEMB     71       OSM      H5G      HAL2     0.900000E-01   1.00800           0
     12377 MEMB     71       OSM      C6F      CTL2    -0.180000       12.0110           0
     12378 MEMB     71       OSM      H6F      HAL2     0.900000E-01   1.00800           0
     12379 MEMB     71       OSM      H6G      HAL2     0.900000E-01   1.00800           0
     12380 MEMB     71       OSM      C7F      CTL2    -0.180000       12.0110           0
     12381 MEMB     71       OSM      H7F      HAL2     0.900000E-01   1.00800           0
     12382 MEMB     71       OSM      H7G      HAL2     0.900000E-01   1.00800           0
     12383 MEMB     71       OSM      C8F      CTL2    -0.180000       12.0110           0
     12384 MEMB     71       OSM      H8F      HAL2     0.900000E-01   1.00800           0
     12385 MEMB     71       OSM      H8G      HAL2     0.900000E-01   1.00800           0
     12386 MEMB     71       OSM      C9F      CEL1    -0.150000       12.0110           0
     12387 MEMB     71       OSM      H9F      HEL1     0.150000       1.00800           0
     12388 MEMB     71       OSM      C10F     CEL1    -0.150000       12.0110           0
     12389 MEMB     71       OSM      H10F     HEL1     0.150000       1.00800           0
     12390 MEMB     71       OSM      C11F     CTL2    -0.180000       12.0110           0
     12391 MEMB     71       OSM      H11F     HAL2     0.900000E-01   1.00800           0
     12392 MEMB     71       OSM      H11G     HAL2     0.900000E-01   1.00800           0
     12393 MEMB     71       OSM      C12F     CTL2    -0.180000       12.0110           0
     12394 MEMB     71       OSM      H12F     HAL2     0.900000E-01   1.00800           0
     12395 MEMB     71       OSM      H12G     HAL2     0.900000E-01   1.00800           0
     12396 MEMB     71       OSM      C13F     CTL2    -0.180000       12.0110           0
     12397 MEMB     71       OSM      H13F     HAL2     0.900000E-01   1.00800           0
     12398 MEMB     71       OSM      H13G     HAL2     0.900000E-01   1.00800           0
     12399 MEMB     71       OSM      C14F     CTL2    -0.180000       12.0110           0
     12400 MEMB     71       OSM      H14F     HAL2     0.900000E-01   1.00800           0
     12401 MEMB     71       OSM      H14G     HAL2     0.900000E-01   1.00800           0
     12402 MEMB     71       OSM      C15F     CTL2    -0.180000       12.0110           0
     12403 MEMB     71       OSM      H15F     HAL2     0.900000E-01   1.00800           0
     12404 MEMB     71       OSM      H15G     HAL2     0.900000E-01   1.00800           0
     12405 MEMB     71       OSM      C16F     CTL2    -0.180000       12.0110           0
     12406 MEMB     71       OSM      H16F     HAL2     0.900000E-01   1.00800           0
     12407 MEMB     71       OSM      H16G     HAL2     0.900000E-01   1.00800           0
     12408 MEMB     71       OSM      C17F     CTL2    -0.180000       12.0110           0
     12409 MEMB     71       OSM      H17F     HAL2     0.900000E-01   1.00800           0
     12410 MEMB     71       OSM      H17G     HAL2     0.900000E-01   1.00800           0
     12411 MEMB     71       OSM      C18F     CTL3    -0.270000       12.0110           0
     12412 MEMB     71       OSM      H18F     HAL3     0.900000E-01   1.00800           0
     12413 MEMB     71       OSM      H18G     HAL3     0.900000E-01   1.00800           0
     12414 MEMB     71       OSM      H18H     HAL3     0.900000E-01   1.00800           0
     12415 MEMB     73       OSM      N        NTL     -0.600000       14.0070           0
     12416 MEMB     73       OSM      C15      CTL5    -0.350000       12.0110           0
     12417 MEMB     73       OSM      H15A     HL       0.250000       1.00800           0
     12418 MEMB     73       OSM      H15B     HL       0.250000       1.00800           0
     12419 MEMB     73       OSM      H15C     HL       0.250000       1.00800           0
     12420 MEMB     73       OSM      C14      CTL5    -0.350000       12.0110           0
     12421 MEMB     73       OSM      H14A     HL       0.250000       1.00800           0
     12422 MEMB     73       OSM      H14B     HL       0.250000       1.00800           0
     12423 MEMB     73       OSM      H14C     HL       0.250000       1.00800           0
     12424 MEMB     73       OSM      C13      CTL5    -0.350000       12.0110           0
     12425 MEMB     73       OSM      H13A     HL       0.250000       1.00800           0
     12426 MEMB     73       OSM      H13B     HL       0.250000       1.00800           0
     12427 MEMB     73       OSM      H13C     HL       0.250000       1.00800           0
     12428 MEMB     73       OSM      C12      CTL2    -0.100000       12.0110           0
     12429 MEMB     73       OSM      H12A     HL       0.250000       1.00800           0
     12430 MEMB     73       OSM      H12B     HL       0.250000       1.00800           0
     12431 MEMB     73       OSM      C11      CTL2    -0.800000E-01   12.0110           0
     12432 MEMB     73       OSM      H11A     HAL2     0.900000E-01   1.00800           0
     12433 MEMB     73       OSM      H11B     HAL2     0.900000E-01   1.00800           0
     12434 MEMB     73       OSM      P        PL       1.500000       30.9740           0
     12435 MEMB     73       OSM      O13      O2L     -0.780000       15.9994           0
     12436 MEMB     73       OSM      O14      O2L     -0.780000       15.9994           0
     12437 MEMB     73       OSM      O11      OSLP    -0.570000       15.9994           0
     12438 MEMB     73       OSM      O12      OSLP    -0.570000       15.9994           0
     12439 MEMB     73       OSM      C1S      CTL2    -0.800000E-01   12.0110           0
     12440 MEMB     73       OSM      H1S      HAL2     0.900000E-01   1.00800           0
     12441 MEMB     73       OSM      H1T      HAL2     0.900000E-01   1.00800           0
     12442 MEMB     73       OSM      NF       NHL     -0.700000       14.0070           0
     12443 MEMB     73       OSM      HNF      H        0.350000       1.00800           0
     12444 MEMB     73       OSM      C2S      CTL1     0.300000       12.0110           0
     12445 MEMB     73       OSM      H2S      HAL1     0.500000E-01   1.00800           0
     12446 MEMB     73       OSM      C3S      CTO1     0.500000       12.0110           0
     12447 MEMB     73       OSM      H3S      HAL1    -0.110000       1.00800           0
     12448 MEMB     73       OSM      O3       OHL     -0.690000       15.9994           0
     12449 MEMB     73       OSM      HO3      HOL      0.300000       1.00800           0
     12450 MEMB     73       OSM      C4S      CEL3    -0.150000       12.0110           0
     12451 MEMB     73       OSM      H4S      HEL1     0.150000       1.00800           0
     12452 MEMB     73       OSM      C5S      CEL3    -0.150000       12.0110           0
     12453 MEMB     73       OSM      H5S      HEL1     0.150000       1.00800           0
     12454 MEMB     73       OSM      C6S      CTL2    -0.180000       12.0110           0
     12455 MEMB     73       OSM      H6S      HAL2     0.900000E-01   1.00800           0
     12456 MEMB     73       OSM      H6T      HAL2     0.900000E-01   1.00800           0
     12457 MEMB     73       OSM      C7S      CTL2    -0.180000       12.0110           0
     12458 MEMB     73       OSM      H7S      HAL2     0.900000E-01   1.00800           0
     12459 MEMB     73       OSM      H7T      HAL2     0.900000E-01   1.00800           0
     12460 MEMB     73       OSM      C8S      CTL2    -0.180000       12.0110           0
     12461 MEMB     73       OSM      H8S      HAL2     0.900000E-01   1.00800           0
     12462 MEMB     73       OSM      H8T      HAL2     0.900000E-01   1.00800           0
     12463 MEMB     73       OSM      C9S      CTL2    -0.180000       12.0110           0
     12464 MEMB     73       OSM      H9S      HAL2     0.900000E-01   1.00800           0
     12465 MEMB     73       OSM      H9T      HAL2     0.900000E-01   1.00800           0
     12466 MEMB     73       OSM      C10S     CTL2    -0.180000       12.0110           0
     12467 MEMB     73       OSM      H10S     HAL2     0.900000E-01   1.00800           0
     12468 MEMB     73       OSM      H10T     HAL2     0.900000E-01   1.00800           0
     12469 MEMB     73       OSM      C11S     CTL2    -0.180000       12.0110           0
     12470 MEMB     73       OSM      H11S     HAL2     0.900000E-01   1.00800           0
     12471 MEMB     73       OSM      H11T     HAL2     0.900000E-01   1.00800           0
     12472 MEMB     73       OSM      C12S     CTL2    -0.180000       12.0110           0
     12473 MEMB     73       OSM      H12S     HAL2     0.900000E-01   1.00800           0
     12474 MEMB     73       OSM      H12T     HAL2     0.900000E-01   1.00800           0
     12475 MEMB     73       OSM      C13S     CTL2    -0.180000       12.0110           0
     12476 MEMB     73       OSM      H13S     HAL2     0.900000E-01   1.00800           0
     12477 MEMB     73       OSM      H13T     HAL2     0.900000E-01   1.00800           0
     12478 MEMB     73       OSM      C14S     CTL2    -0.180000       12.0110           0
     12479 MEMB     73       OSM      H14S     HAL2     0.900000E-01   1.00800           0
     12480 MEMB     73       OSM      H14T     HAL2     0.900000E-01   1.00800           0
     12481 MEMB     73       OSM      C15S     CTL2    -0.180000       12.0110           0
     12482 MEMB     73       OSM      H15S     HAL2     0.900000E-01   1.00800           0
     12483 MEMB     73       OSM      H15T     HAL2     0.900000E-01   1.00800           0
     12484 MEMB     73       OSM      C16S     CTL2    -0.180000       12.0110           0
     12485 MEMB     73       OSM      H16S     HAL2     0.900000E-01   1.00800           0
     12486 MEMB     73       OSM      H16T     HAL2     0.900000E-01   1.00800           0
     12487 MEMB     73       OSM      C17S     CTL2    -0.180000       12.0110           0
     12488 MEMB     73       OSM      H17S     HAL2     0.900000E-01   1.00800           0
     12489 MEMB     73       OSM      H17T     HAL2     0.900000E-01   1.00800           0
     12490 MEMB     73       OSM      C18S     CTL3    -0.270000       12.0110           0
     12491 MEMB     73       OSM      H18S     HAL3     0.900000E-01   1.00800           0
     12492 MEMB     73       OSM      H18T     HAL3     0.900000E-01   1.00800           0
     12493 MEMB     73       OSM      H18U     HAL3     0.900000E-01   1.00800           0
     12494 MEMB     73       OSM      C1F      C        0.550000       12.0110           0
     12495 MEMB     73       OSM      OF       O       -0.600000       15.9994           0
     12496 MEMB     73       OSM      C2F      CTL2    -0.700000E-01   12.0110           0
     12497 MEMB     73       OSM      H2F      HAL2     0.600000E-01   1.00800           0
     12498 MEMB     73       OSM      H2G      HAL2     0.600000E-01   1.00800           0
     12499 MEMB     73       OSM      C3F      CTL2    -0.180000       12.0110           0
     12500 MEMB     73       OSM      H3F      HAL2     0.900000E-01   1.00800           0
     12501 MEMB     73       OSM      H3G      HAL2     0.900000E-01   1.00800           0
     12502 MEMB     73       OSM      C4F      CTL2    -0.180000       12.0110           0
     12503 MEMB     73       OSM      H4F      HAL2     0.900000E-01   1.00800           0
     12504 MEMB     73       OSM      H4G      HAL2     0.900000E-01   1.00800           0
     12505 MEMB     73       OSM      C5F      CTL2    -0.180000       12.0110           0
     12506 MEMB     73       OSM      H5F      HAL2     0.900000E-01   1.00800           0
     12507 MEMB     73       OSM      H5G      HAL2     0.900000E-01   1.00800           0
     12508 MEMB     73       OSM      C6F      CTL2    -0.180000       12.0110           0
     12509 MEMB     73       OSM      H6F      HAL2     0.900000E-01   1.00800           0
     12510 MEMB     73       OSM      H6G      HAL2     0.900000E-01   1.00800           0
     12511 MEMB     73       OSM      C7F      CTL2    -0.180000       12.0110           0
     12512 MEMB     73       OSM      H7F      HAL2     0.900000E-01   1.00800           0
     12513 MEMB     73       OSM      H7G      HAL2     0.900000E-01   1.00800           0
     12514 MEMB     73       OSM      C8F      CTL2    -0.180000       12.0110           0
     12515 MEMB     73       OSM      H8F      HAL2     0.900000E-01   1.00800           0
     12516 MEMB     73       OSM      H8G      HAL2     0.900000E-01   1.00800           0
     12517 MEMB     73       OSM      C9F      CEL1    -0.150000       12.0110           0
     12518 MEMB     73       OSM      H9F      HEL1     0.150000       1.00800           0
     12519 MEMB     73       OSM      C10F     CEL1    -0.150000       12.0110           0
     12520 MEMB     73       OSM      H10F     HEL1     0.150000       1.00800           0
     12521 MEMB     73       OSM      C11F     CTL2    -0.180000       12.0110           0
     12522 MEMB     73       OSM      H11F     HAL2     0.900000E-01   1.00800           0
     12523 MEMB     73       OSM      H11G     HAL2     0.900000E-01   1.00800           0
     12524 MEMB     73       OSM      C12F     CTL2    -0.180000       12.0110           0
     12525 MEMB     73       OSM      H12F     HAL2     0.900000E-01   1.00800           0
     12526 MEMB     73       OSM      H12G     HAL2     0.900000E-01   1.00800           0
     12527 MEMB     73       OSM      C13F     CTL2    -0.180000       12.0110           0
     12528 MEMB     73       OSM      H13F     HAL2     0.900000E-01   1.00800           0
     12529 MEMB     73       OSM      H13G     HAL2     0.900000E-01   1.00800           0
     12530 MEMB     73       OSM      C14F     CTL2    -0.180000       12.0110           0
     12531 MEMB     73       OSM      H14F     HAL2     0.900000E-01   1.00800           0
     12532 MEMB     73       OSM      H14G     HAL2     0.900000E-01   1.00800           0
     12533 MEMB     73       OSM      C15F     CTL2    -0.180000       12.0110           0
     12534 MEMB     73       OSM      H15F     HAL2     0.900000E-01   1.00800           0
     12535 MEMB     73       OSM      H15G     HAL2     0.900000E-01   1.00800           0
     12536 MEMB     73       OSM      C16F     CTL2    -0.180000       12.0110           0
     12537 MEMB     73       OSM      H16F     HAL2     0.900000E-01   1.00800           0
     12538 MEMB     73       OSM      H16G     HAL2     0.900000E-01   1.00800           0
     12539 MEMB     73       OSM      C17F     CTL2    -0.180000       12.0110           0
     12540 MEMB     73       OSM      H17F     HAL2     0.900000E-01   1.00800           0
     12541 MEMB     73       OSM      H17G     HAL2     0.900000E-01   1.00800           0
     12542 MEMB     73       OSM      C18F     CTL3    -0.270000       12.0110           0
     12543 MEMB     73       OSM      H18F     HAL3     0.900000E-01   1.00800           0
     12544 MEMB     73       OSM      H18G     HAL3     0.900000E-01   1.00800           0
     12545 MEMB     73       OSM      H18H     HAL3     0.900000E-01   1.00800           0
     12546 MEMB     74       OSM      N        NTL     -0.600000       14.0070           0
     12547 MEMB     74       OSM      C15      CTL5    -0.350000       12.0110           0
     12548 MEMB     74       OSM      H15A     HL       0.250000       1.00800           0
     12549 MEMB     74       OSM      H15B     HL       0.250000       1.00800           0
     12550 MEMB     74       OSM      H15C     HL       0.250000       1.00800           0
     12551 MEMB     74       OSM      C14      CTL5    -0.350000       12.0110           0
     12552 MEMB     74       OSM      H14A     HL       0.250000       1.00800           0
     12553 MEMB     74       OSM      H14B     HL       0.250000       1.00800           0
     12554 MEMB     74       OSM      H14C     HL       0.250000       1.00800           0
     12555 MEMB     74       OSM      C13      CTL5    -0.350000       12.0110           0
     12556 MEMB     74       OSM      H13A     HL       0.250000       1.00800           0
     12557 MEMB     74       OSM      H13B     HL       0.250000       1.00800           0
     12558 MEMB     74       OSM      H13C     HL       0.250000       1.00800           0
     12559 MEMB     74       OSM      C12      CTL2    -0.100000       12.0110           0
     12560 MEMB     74       OSM      H12A     HL       0.250000       1.00800           0
     12561 MEMB     74       OSM      H12B     HL       0.250000       1.00800           0
     12562 MEMB     74       OSM      C11      CTL2    -0.800000E-01   12.0110           0
     12563 MEMB     74       OSM      H11A     HAL2     0.900000E-01   1.00800           0
     12564 MEMB     74       OSM      H11B     HAL2     0.900000E-01   1.00800           0
     12565 MEMB     74       OSM      P        PL       1.500000       30.9740           0
     12566 MEMB     74       OSM      O13      O2L     -0.780000       15.9994           0
     12567 MEMB     74       OSM      O14      O2L     -0.780000       15.9994           0
     12568 MEMB     74       OSM      O11      OSLP    -0.570000       15.9994           0
     12569 MEMB     74       OSM      O12      OSLP    -0.570000       15.9994           0
     12570 MEMB     74       OSM      C1S      CTL2    -0.800000E-01   12.0110           0
     12571 MEMB     74       OSM      H1S      HAL2     0.900000E-01   1.00800           0
     12572 MEMB     74       OSM      H1T      HAL2     0.900000E-01   1.00800           0
     12573 MEMB     74       OSM      NF       NHL     -0.700000       14.0070           0
     12574 MEMB     74       OSM      HNF      H        0.350000       1.00800           0
     12575 MEMB     74       OSM      C2S      CTL1     0.300000       12.0110           0
     12576 MEMB     74       OSM      H2S      HAL1     0.500000E-01   1.00800           0
     12577 MEMB     74       OSM      C3S      CTO1     0.500000       12.0110           0
     12578 MEMB     74       OSM      H3S      HAL1    -0.110000       1.00800           0
     12579 MEMB     74       OSM      O3       OHL     -0.690000       15.9994           0
     12580 MEMB     74       OSM      HO3      HOL      0.300000       1.00800           0
     12581 MEMB     74       OSM      C4S      CEL3    -0.150000       12.0110           0
     12582 MEMB     74       OSM      H4S      HEL1     0.150000       1.00800           0
     12583 MEMB     74       OSM      C5S      CEL3    -0.150000       12.0110           0
     12584 MEMB     74       OSM      H5S      HEL1     0.150000       1.00800           0
     12585 MEMB     74       OSM      C6S      CTL2    -0.180000       12.0110           0
     12586 MEMB     74       OSM      H6S      HAL2     0.900000E-01   1.00800           0
     12587 MEMB     74       OSM      H6T      HAL2     0.900000E-01   1.00800           0
     12588 MEMB     74       OSM      C7S      CTL2    -0.180000       12.0110           0
     12589 MEMB     74       OSM      H7S      HAL2     0.900000E-01   1.00800           0
     12590 MEMB     74       OSM      H7T      HAL2     0.900000E-01   1.00800           0
     12591 MEMB     74       OSM      C8S      CTL2    -0.180000       12.0110           0
     12592 MEMB     74       OSM      H8S      HAL2     0.900000E-01   1.00800           0
     12593 MEMB     74       OSM      H8T      HAL2     0.900000E-01   1.00800           0
     12594 MEMB     74       OSM      C9S      CTL2    -0.180000       12.0110           0
     12595 MEMB     74       OSM      H9S      HAL2     0.900000E-01   1.00800           0
     12596 MEMB     74       OSM      H9T      HAL2     0.900000E-01   1.00800           0
     12597 MEMB     74       OSM      C10S     CTL2    -0.180000       12.0110           0
     12598 MEMB     74       OSM      H10S     HAL2     0.900000E-01   1.00800           0
     12599 MEMB     74       OSM      H10T     HAL2     0.900000E-01   1.00800           0
     12600 MEMB     74       OSM      C11S     CTL2    -0.180000       12.0110           0
     12601 MEMB     74       OSM      H11S     HAL2     0.900000E-01   1.00800           0
     12602 MEMB     74       OSM      H11T     HAL2     0.900000E-01   1.00800           0
     12603 MEMB     74       OSM      C12S     CTL2    -0.180000       12.0110           0
     12604 MEMB     74       OSM      H12S     HAL2     0.900000E-01   1.00800           0
     12605 MEMB     74       OSM      H12T     HAL2     0.900000E-01   1.00800           0
     12606 MEMB     74       OSM      C13S     CTL2    -0.180000       12.0110           0
     12607 MEMB     74       OSM      H13S     HAL2     0.900000E-01   1.00800           0
     12608 MEMB     74       OSM      H13T     HAL2     0.900000E-01   1.00800           0
     12609 MEMB     74       OSM      C14S     CTL2    -0.180000       12.0110           0
     12610 MEMB     74       OSM      H14S     HAL2     0.900000E-01   1.00800           0
     12611 MEMB     74       OSM      H14T     HAL2     0.900000E-01   1.00800           0
     12612 MEMB     74       OSM      C15S     CTL2    -0.180000       12.0110           0
     12613 MEMB     74       OSM      H15S     HAL2     0.900000E-01   1.00800           0
     12614 MEMB     74       OSM      H15T     HAL2     0.900000E-01   1.00800           0
     12615 MEMB     74       OSM      C16S     CTL2    -0.180000       12.0110           0
     12616 MEMB     74       OSM      H16S     HAL2     0.900000E-01   1.00800           0
     12617 MEMB     74       OSM      H16T     HAL2     0.900000E-01   1.00800           0
     12618 MEMB     74       OSM      C17S     CTL2    -0.180000       12.0110           0
     12619 MEMB     74       OSM      H17S     HAL2     0.900000E-01   1.00800           0
     12620 MEMB     74       OSM      H17T     HAL2     0.900000E-01   1.00800           0
     12621 MEMB     74       OSM      C18S     CTL3    -0.270000       12.0110           0
     12622 MEMB     74       OSM      H18S     HAL3     0.900000E-01   1.00800           0
     12623 MEMB     74       OSM      H18T     HAL3     0.900000E-01   1.00800           0
     12624 MEMB     74       OSM      H18U     HAL3     0.900000E-01   1.00800           0
     12625 MEMB     74       OSM      C1F      C        0.550000       12.0110           0
     12626 MEMB     74       OSM      OF       O       -0.600000       15.9994           0
     12627 MEMB     74       OSM      C2F      CTL2    -0.700000E-01   12.0110           0
     12628 MEMB     74       OSM      H2F      HAL2     0.600000E-01   1.00800           0
     12629 MEMB     74       OSM      H2G      HAL2     0.600000E-01   1.00800           0
     12630 MEMB     74       OSM      C3F      CTL2    -0.180000       12.0110           0
     12631 MEMB     74       OSM      H3F      HAL2     0.900000E-01   1.00800           0
     12632 MEMB     74       OSM      H3G      HAL2     0.900000E-01   1.00800           0
     12633 MEMB     74       OSM      C4F      CTL2    -0.180000       12.0110           0
     12634 MEMB     74       OSM      H4F      HAL2     0.900000E-01   1.00800           0
     12635 MEMB     74       OSM      H4G      HAL2     0.900000E-01   1.00800           0
     12636 MEMB     74       OSM      C5F      CTL2    -0.180000       12.0110           0
     12637 MEMB     74       OSM      H5F      HAL2     0.900000E-01   1.00800           0
     12638 MEMB     74       OSM      H5G      HAL2     0.900000E-01   1.00800           0
     12639 MEMB     74       OSM      C6F      CTL2    -0.180000       12.0110           0
     12640 MEMB     74       OSM      H6F      HAL2     0.900000E-01   1.00800           0
     12641 MEMB     74       OSM      H6G      HAL2     0.900000E-01   1.00800           0
     12642 MEMB     74       OSM      C7F      CTL2    -0.180000       12.0110           0
     12643 MEMB     74       OSM      H7F      HAL2     0.900000E-01   1.00800           0
     12644 MEMB     74       OSM      H7G      HAL2     0.900000E-01   1.00800           0
     12645 MEMB     74       OSM      C8F      CTL2    -0.180000       12.0110           0
     12646 MEMB     74       OSM      H8F      HAL2     0.900000E-01   1.00800           0
     12647 MEMB     74       OSM      H8G      HAL2     0.900000E-01   1.00800           0
     12648 MEMB     74       OSM      C9F      CEL1    -0.150000       12.0110           0
     12649 MEMB     74       OSM      H9F      HEL1     0.150000       1.00800           0
     12650 MEMB     74       OSM      C10F     CEL1    -0.150000       12.0110           0
     12651 MEMB     74       OSM      H10F     HEL1     0.150000       1.00800           0
     12652 MEMB     74       OSM      C11F     CTL2    -0.180000       12.0110           0
     12653 MEMB     74       OSM      H11F     HAL2     0.900000E-01   1.00800           0
     12654 MEMB     74       OSM      H11G     HAL2     0.900000E-01   1.00800           0
     12655 MEMB     74       OSM      C12F     CTL2    -0.180000       12.0110           0
     12656 MEMB     74       OSM      H12F     HAL2     0.900000E-01   1.00800           0
     12657 MEMB     74       OSM      H12G     HAL2     0.900000E-01   1.00800           0
     12658 MEMB     74       OSM      C13F     CTL2    -0.180000       12.0110           0
     12659 MEMB     74       OSM      H13F     HAL2     0.900000E-01   1.00800           0
     12660 MEMB     74       OSM      H13G     HAL2     0.900000E-01   1.00800           0
     12661 MEMB     74       OSM      C14F     CTL2    -0.180000       12.0110           0
     12662 MEMB     74       OSM      H14F     HAL2     0.900000E-01   1.00800           0
     12663 MEMB     74       OSM      H14G     HAL2     0.900000E-01   1.00800           0
     12664 MEMB     74       OSM      C15F     CTL2    -0.180000       12.0110           0
     12665 MEMB     74       OSM      H15F     HAL2     0.900000E-01   1.00800           0
     12666 MEMB     74       OSM      H15G     HAL2     0.900000E-01   1.00800           0
     12667 MEMB     74       OSM      C16F     CTL2    -0.180000       12.0110           0
     12668 MEMB     74       OSM      H16F     HAL2     0.900000E-01   1.00800           0
     12669 MEMB     74       OSM      H16G     HAL2     0.900000E-01   1.00800           0
     12670 MEMB     74       OSM      C17F     CTL2    -0.180000       12.0110           0
     12671 MEMB     74       OSM      H17F     HAL2     0.900000E-01   1.00800           0
     12672 MEMB     74       OSM      H17G     HAL2     0.900000E-01   1.00800           0
     12673 MEMB     74       OSM      C18F     CTL3    -0.270000       12.0110           0
     12674 MEMB     74       OSM      H18F     HAL3     0.900000E-01   1.00800           0
     12675 MEMB     74       OSM      H18G     HAL3     0.900000E-01   1.00800           0
     12676 MEMB     74       OSM      H18H     HAL3     0.900000E-01   1.00800           0
     12677 MEMB     79       OSM      N        NTL     -0.600000       14.0070           0
     12678 MEMB     79       OSM      C15      CTL5    -0.350000       12.0110           0
     12679 MEMB     79       OSM      H15A     HL       0.250000       1.00800           0
     12680 MEMB     79       OSM      H15B     HL       0.250000       1.00800           0
     12681 MEMB     79       OSM      H15C     HL       0.250000       1.00800           0
     12682 MEMB     79       OSM      C14      CTL5    -0.350000       12.0110           0
     12683 MEMB     79       OSM      H14A     HL       0.250000       1.00800           0
     12684 MEMB     79       OSM      H14B     HL       0.250000       1.00800           0
     12685 MEMB     79       OSM      H14C     HL       0.250000       1.00800           0
     12686 MEMB     79       OSM      C13      CTL5    -0.350000       12.0110           0
     12687 MEMB     79       OSM      H13A     HL       0.250000       1.00800           0
     12688 MEMB     79       OSM      H13B     HL       0.250000       1.00800           0
     12689 MEMB     79       OSM      H13C     HL       0.250000       1.00800           0
     12690 MEMB     79       OSM      C12      CTL2    -0.100000       12.0110           0
     12691 MEMB     79       OSM      H12A     HL       0.250000       1.00800           0
     12692 MEMB     79       OSM      H12B     HL       0.250000       1.00800           0
     12693 MEMB     79       OSM      C11      CTL2    -0.800000E-01   12.0110           0
     12694 MEMB     79       OSM      H11A     HAL2     0.900000E-01   1.00800           0
     12695 MEMB     79       OSM      H11B     HAL2     0.900000E-01   1.00800           0
     12696 MEMB     79       OSM      P        PL       1.500000       30.9740           0
     12697 MEMB     79       OSM      O13      O2L     -0.780000       15.9994           0
     12698 MEMB     79       OSM      O14      O2L     -0.780000       15.9994           0
     12699 MEMB     79       OSM      O11      OSLP    -0.570000       15.9994           0
     12700 MEMB     79       OSM      O12      OSLP    -0.570000       15.9994           0
     12701 MEMB     79       OSM      C1S      CTL2    -0.800000E-01   12.0110           0
     12702 MEMB     79       OSM      H1S      HAL2     0.900000E-01   1.00800           0
     12703 MEMB     79       OSM      H1T      HAL2     0.900000E-01   1.00800           0
     12704 MEMB     79       OSM      NF       NHL     -0.700000       14.0070           0
     12705 MEMB     79       OSM      HNF      H        0.350000       1.00800           0
     12706 MEMB     79       OSM      C2S      CTL1     0.300000       12.0110           0
     12707 MEMB     79       OSM      H2S      HAL1     0.500000E-01   1.00800           0
     12708 MEMB     79       OSM      C3S      CTO1     0.500000       12.0110           0
     12709 MEMB     79       OSM      H3S      HAL1    -0.110000       1.00800           0
     12710 MEMB     79       OSM      O3       OHL     -0.690000       15.9994           0
     12711 MEMB     79       OSM      HO3      HOL      0.300000       1.00800           0
     12712 MEMB     79       OSM      C4S      CEL3    -0.150000       12.0110           0
     12713 MEMB     79       OSM      H4S      HEL1     0.150000       1.00800           0
     12714 MEMB     79       OSM      C5S      CEL3    -0.150000       12.0110           0
     12715 MEMB     79       OSM      H5S      HEL1     0.150000       1.00800           0
     12716 MEMB     79       OSM      C6S      CTL2    -0.180000       12.0110           0
     12717 MEMB     79       OSM      H6S      HAL2     0.900000E-01   1.00800           0
     12718 MEMB     79       OSM      H6T      HAL2     0.900000E-01   1.00800           0
     12719 MEMB     79       OSM      C7S      CTL2    -0.180000       12.0110           0
     12720 MEMB     79       OSM      H7S      HAL2     0.900000E-01   1.00800           0
     12721 MEMB     79       OSM      H7T      HAL2     0.900000E-01   1.00800           0
     12722 MEMB     79       OSM      C8S      CTL2    -0.180000       12.0110           0
     12723 MEMB     79       OSM      H8S      HAL2     0.900000E-01   1.00800           0
     12724 MEMB     79       OSM      H8T      HAL2     0.900000E-01   1.00800           0
     12725 MEMB     79       OSM      C9S      CTL2    -0.180000       12.0110           0
     12726 MEMB     79       OSM      H9S      HAL2     0.900000E-01   1.00800           0
     12727 MEMB     79       OSM      H9T      HAL2     0.900000E-01   1.00800           0
     12728 MEMB     79       OSM      C10S     CTL2    -0.180000       12.0110           0
     12729 MEMB     79       OSM      H10S     HAL2     0.900000E-01   1.00800           0
     12730 MEMB     79       OSM      H10T     HAL2     0.900000E-01   1.00800           0
     12731 MEMB     79       OSM      C11S     CTL2    -0.180000       12.0110           0
     12732 MEMB     79       OSM      H11S     HAL2     0.900000E-01   1.00800           0
     12733 MEMB     79       OSM      H11T     HAL2     0.900000E-01   1.00800           0
     12734 MEMB     79       OSM      C12S     CTL2    -0.180000       12.0110           0
     12735 MEMB     79       OSM      H12S     HAL2     0.900000E-01   1.00800           0
     12736 MEMB     79       OSM      H12T     HAL2     0.900000E-01   1.00800           0
     12737 MEMB     79       OSM      C13S     CTL2    -0.180000       12.0110           0
     12738 MEMB     79       OSM      H13S     HAL2     0.900000E-01   1.00800           0
     12739 MEMB     79       OSM      H13T     HAL2     0.900000E-01   1.00800           0
     12740 MEMB     79       OSM      C14S     CTL2    -0.180000       12.0110           0
     12741 MEMB     79       OSM      H14S     HAL2     0.900000E-01   1.00800           0
     12742 MEMB     79       OSM      H14T     HAL2     0.900000E-01   1.00800           0
     12743 MEMB     79       OSM      C15S     CTL2    -0.180000       12.0110           0
     12744 MEMB     79       OSM      H15S     HAL2     0.900000E-01   1.00800           0
     12745 MEMB     79       OSM      H15T     HAL2     0.900000E-01   1.00800           0
     12746 MEMB     79       OSM      C16S     CTL2    -0.180000       12.0110           0
     12747 MEMB     79       OSM      H16S     HAL2     0.900000E-01   1.00800           0
     12748 MEMB     79       OSM      H16T     HAL2     0.900000E-01   1.00800           0
     12749 MEMB     79       OSM      C17S     CTL2    -0.180000       12.0110           0
     12750 MEMB     79       OSM      H17S     HAL2     0.900000E-01   1.00800           0
     12751 MEMB     79       OSM      H17T     HAL2     0.900000E-01   1.00800           0
     12752 MEMB     79       OSM      C18S     CTL3    -0.270000       12.0110           0
     12753 MEMB     79       OSM      H18S     HAL3     0.900000E-01   1.00800           0
     12754 MEMB     79       OSM      H18T     HAL3     0.900000E-01   1.00800           0
     12755 MEMB     79       OSM      H18U     HAL3     0.900000E-01   1.00800           0
     12756 MEMB     79       OSM      C1F      C        0.550000       12.0110           0
     12757 MEMB     79       OSM      OF       O       -0.600000       15.9994           0
     12758 MEMB     79       OSM      C2F      CTL2    -0.700000E-01   12.0110           0
     12759 MEMB     79       OSM      H2F      HAL2     0.600000E-01   1.00800           0
     12760 MEMB     79       OSM      H2G      HAL2     0.600000E-01   1.00800           0
     12761 MEMB     79       OSM      C3F      CTL2    -0.180000       12.0110           0
     12762 MEMB     79       OSM      H3F      HAL2     0.900000E-01   1.00800           0
     12763 MEMB     79       OSM      H3G      HAL2     0.900000E-01   1.00800           0
     12764 MEMB     79       OSM      C4F      CTL2    -0.180000       12.0110           0
     12765 MEMB     79       OSM      H4F      HAL2     0.900000E-01   1.00800           0
     12766 MEMB     79       OSM      H4G      HAL2     0.900000E-01   1.00800           0
     12767 MEMB     79       OSM      C5F      CTL2    -0.180000       12.0110           0
     12768 MEMB     79       OSM      H5F      HAL2     0.900000E-01   1.00800           0
     12769 MEMB     79       OSM      H5G      HAL2     0.900000E-01   1.00800           0
     12770 MEMB     79       OSM      C6F      CTL2    -0.180000       12.0110           0
     12771 MEMB     79       OSM      H6F      HAL2     0.900000E-01   1.00800           0
     12772 MEMB     79       OSM      H6G      HAL2     0.900000E-01   1.00800           0
     12773 MEMB     79       OSM      C7F      CTL2    -0.180000       12.0110           0
     12774 MEMB     79       OSM      H7F      HAL2     0.900000E-01   1.00800           0
     12775 MEMB     79       OSM      H7G      HAL2     0.900000E-01   1.00800           0
     12776 MEMB     79       OSM      C8F      CTL2    -0.180000       12.0110           0
     12777 MEMB     79       OSM      H8F      HAL2     0.900000E-01   1.00800           0
     12778 MEMB     79       OSM      H8G      HAL2     0.900000E-01   1.00800           0
     12779 MEMB     79       OSM      C9F      CEL1    -0.150000       12.0110           0
     12780 MEMB     79       OSM      H9F      HEL1     0.150000       1.00800           0
     12781 MEMB     79       OSM      C10F     CEL1    -0.150000       12.0110           0
     12782 MEMB     79       OSM      H10F     HEL1     0.150000       1.00800           0
     12783 MEMB     79       OSM      C11F     CTL2    -0.180000       12.0110           0
     12784 MEMB     79       OSM      H11F     HAL2     0.900000E-01   1.00800           0
     12785 MEMB     79       OSM      H11G     HAL2     0.900000E-01   1.00800           0
     12786 MEMB     79       OSM      C12F     CTL2    -0.180000       12.0110           0
     12787 MEMB     79       OSM      H12F     HAL2     0.900000E-01   1.00800           0
     12788 MEMB     79       OSM      H12G     HAL2     0.900000E-01   1.00800           0
     12789 MEMB     79       OSM      C13F     CTL2    -0.180000       12.0110           0
     12790 MEMB     79       OSM      H13F     HAL2     0.900000E-01   1.00800           0
     12791 MEMB     79       OSM      H13G     HAL2     0.900000E-01   1.00800           0
     12792 MEMB     79       OSM      C14F     CTL2    -0.180000       12.0110           0
     12793 MEMB     79       OSM      H14F     HAL2     0.900000E-01   1.00800           0
     12794 MEMB     79       OSM      H14G     HAL2     0.900000E-01   1.00800           0
     12795 MEMB     79       OSM      C15F     CTL2    -0.180000       12.0110           0
     12796 MEMB     79       OSM      H15F     HAL2     0.900000E-01   1.00800           0
     12797 MEMB     79       OSM      H15G     HAL2     0.900000E-01   1.00800           0
     12798 MEMB     79       OSM      C16F     CTL2    -0.180000       12.0110           0
     12799 MEMB     79       OSM      H16F     HAL2     0.900000E-01   1.00800           0
     12800 MEMB     79       OSM      H16G     HAL2     0.900000E-01   1.00800           0
     12801 MEMB     79       OSM      C17F     CTL2    -0.180000       12.0110           0
     12802 MEMB     79       OSM      H17F     HAL2     0.900000E-01   1.00800           0
     12803 MEMB     79       OSM      H17G     HAL2     0.900000E-01   1.00800           0
     12804 MEMB     79       OSM      C18F     CTL3    -0.270000       12.0110           0
     12805 MEMB     79       OSM      H18F     HAL3     0.900000E-01   1.00800           0
     12806 MEMB     79       OSM      H18G     HAL3     0.900000E-01   1.00800           0
     12807 MEMB     79       OSM      H18H     HAL3     0.900000E-01   1.00800           0
     12808 MEMB     89       OSM      N        NTL     -0.600000       14.0070           0
     12809 MEMB     89       OSM      C15      CTL5    -0.350000       12.0110           0
     12810 MEMB     89       OSM      H15A     HL       0.250000       1.00800           0
     12811 MEMB     89       OSM      H15B     HL       0.250000       1.00800           0
     12812 MEMB     89       OSM      H15C     HL       0.250000       1.00800           0
     12813 MEMB     89       OSM      C14      CTL5    -0.350000       12.0110           0
     12814 MEMB     89       OSM      H14A     HL       0.250000       1.00800           0
     12815 MEMB     89       OSM      H14B     HL       0.250000       1.00800           0
     12816 MEMB     89       OSM      H14C     HL       0.250000       1.00800           0
     12817 MEMB     89       OSM      C13      CTL5    -0.350000       12.0110           0
     12818 MEMB     89       OSM      H13A     HL       0.250000       1.00800           0
     12819 MEMB     89       OSM      H13B     HL       0.250000       1.00800           0
     12820 MEMB     89       OSM      H13C     HL       0.250000       1.00800           0
     12821 MEMB     89       OSM      C12      CTL2    -0.100000       12.0110           0
     12822 MEMB     89       OSM      H12A     HL       0.250000       1.00800           0
     12823 MEMB     89       OSM      H12B     HL       0.250000       1.00800           0
     12824 MEMB     89       OSM      C11      CTL2    -0.800000E-01   12.0110           0
     12825 MEMB     89       OSM      H11A     HAL2     0.900000E-01   1.00800           0
     12826 MEMB     89       OSM      H11B     HAL2     0.900000E-01   1.00800           0
     12827 MEMB     89       OSM      P        PL       1.500000       30.9740           0
     12828 MEMB     89       OSM      O13      O2L     -0.780000       15.9994           0
     12829 MEMB     89       OSM      O14      O2L     -0.780000       15.9994           0
     12830 MEMB     89       OSM      O11      OSLP    -0.570000       15.9994           0
     12831 MEMB     89       OSM      O12      OSLP    -0.570000       15.9994           0
     12832 MEMB     89       OSM      C1S      CTL2    -0.800000E-01   12.0110           0
     12833 MEMB     89       OSM      H1S      HAL2     0.900000E-01   1.00800           0
     12834 MEMB     89       OSM      H1T      HAL2     0.900000E-01   1.00800           0
     12835 MEMB     89       OSM      NF       NHL     -0.700000       14.0070           0
     12836 MEMB     89       OSM      HNF      H        0.350000       1.00800           0
     12837 MEMB     89       OSM      C2S      CTL1     0.300000       12.0110           0
     12838 MEMB     89       OSM      H2S      HAL1     0.500000E-01   1.00800           0
     12839 MEMB     89       OSM      C3S      CTO1     0.500000       12.0110           0
     12840 MEMB     89       OSM      H3S      HAL1    -0.110000       1.00800           0
     12841 MEMB     89       OSM      O3       OHL     -0.690000       15.9994           0
     12842 MEMB     89       OSM      HO3      HOL      0.300000       1.00800           0
     12843 MEMB     89       OSM      C4S      CEL3    -0.150000       12.0110           0
     12844 MEMB     89       OSM      H4S      HEL1     0.150000       1.00800           0
     12845 MEMB     89       OSM      C5S      CEL3    -0.150000       12.0110           0
     12846 MEMB     89       OSM      H5S      HEL1     0.150000       1.00800           0
     12847 MEMB     89       OSM      C6S      CTL2    -0.180000       12.0110           0
     12848 MEMB     89       OSM      H6S      HAL2     0.900000E-01   1.00800           0
     12849 MEMB     89       OSM      H6T      HAL2     0.900000E-01   1.00800           0
     12850 MEMB     89       OSM      C7S      CTL2    -0.180000       12.0110           0
     12851 MEMB     89       OSM      H7S      HAL2     0.900000E-01   1.00800           0
     12852 MEMB     89       OSM      H7T      HAL2     0.900000E-01   1.00800           0
     12853 MEMB     89       OSM      C8S      CTL2    -0.180000       12.0110           0
     12854 MEMB     89       OSM      H8S      HAL2     0.900000E-01   1.00800           0
     12855 MEMB     89       OSM      H8T      HAL2     0.900000E-01   1.00800           0
     12856 MEMB     89       OSM      C9S      CTL2    -0.180000       12.0110           0
     12857 MEMB     89       OSM      H9S      HAL2     0.900000E-01   1.00800           0
     12858 MEMB     89       OSM      H9T      HAL2     0.900000E-01   1.00800           0
     12859 MEMB     89       OSM      C10S     CTL2    -0.180000       12.0110           0
     12860 MEMB     89       OSM      H10S     HAL2     0.900000E-01   1.00800           0
     12861 MEMB     89       OSM      H10T     HAL2     0.900000E-01   1.00800           0
     12862 MEMB     89       OSM      C11S     CTL2    -0.180000       12.0110           0
     12863 MEMB     89       OSM      H11S     HAL2     0.900000E-01   1.00800           0
     12864 MEMB     89       OSM      H11T     HAL2     0.900000E-01   1.00800           0
     12865 MEMB     89       OSM      C12S     CTL2    -0.180000       12.0110           0
     12866 MEMB     89       OSM      H12S     HAL2     0.900000E-01   1.00800           0
     12867 MEMB     89       OSM      H12T     HAL2     0.900000E-01   1.00800           0
     12868 MEMB     89       OSM      C13S     CTL2    -0.180000       12.0110           0
     12869 MEMB     89       OSM      H13S     HAL2     0.900000E-01   1.00800           0
     12870 MEMB     89       OSM      H13T     HAL2     0.900000E-01   1.00800           0
     12871 MEMB     89       OSM      C14S     CTL2    -0.180000       12.0110           0
     12872 MEMB     89       OSM      H14S     HAL2     0.900000E-01   1.00800           0
     12873 MEMB     89       OSM      H14T     HAL2     0.900000E-01   1.00800           0
     12874 MEMB     89       OSM      C15S     CTL2    -0.180000       12.0110           0
     12875 MEMB     89       OSM      H15S     HAL2     0.900000E-01   1.00800           0
     12876 MEMB     89       OSM      H15T     HAL2     0.900000E-01   1.00800           0
     12877 MEMB     89       OSM      C16S     CTL2    -0.180000       12.0110           0
     12878 MEMB     89       OSM      H16S     HAL2     0.900000E-01   1.00800           0
     12879 MEMB     89       OSM      H16T     HAL2     0.900000E-01   1.00800           0
     12880 MEMB     89       OSM      C17S     CTL2    -0.180000       12.0110           0
     12881 MEMB     89       OSM      H17S     HAL2     0.900000E-01   1.00800           0
     12882 MEMB     89       OSM      H17T     HAL2     0.900000E-01   1.00800           0
     12883 MEMB     89       OSM      C18S     CTL3    -0.270000       12.0110           0
     12884 MEMB     89       OSM      H18S     HAL3     0.900000E-01   1.00800           0
     12885 MEMB     89       OSM      H18T     HAL3     0.900000E-01   1.00800           0
     12886 MEMB     89       OSM      H18U     HAL3     0.900000E-01   1.00800           0
     12887 MEMB     89       OSM      C1F      C        0.550000       12.0110           0
     12888 MEMB     89       OSM      OF       O       -0.600000       15.9994           0
     12889 MEMB     89       OSM      C2F      CTL2    -0.700000E-01   12.0110           0
     12890 MEMB     89       OSM      H2F      HAL2     0.600000E-01   1.00800           0
     12891 MEMB     89       OSM      H2G      HAL2     0.600000E-01   1.00800           0
     12892 MEMB     89       OSM      C3F      CTL2    -0.180000       12.0110           0
     12893 MEMB     89       OSM      H3F      HAL2     0.900000E-01   1.00800           0
     12894 MEMB     89       OSM      H3G      HAL2     0.900000E-01   1.00800           0
     12895 MEMB     89       OSM      C4F      CTL2    -0.180000       12.0110           0
     12896 MEMB     89       OSM      H4F      HAL2     0.900000E-01   1.00800           0
     12897 MEMB     89       OSM      H4G      HAL2     0.900000E-01   1.00800           0
     12898 MEMB     89       OSM      C5F      CTL2    -0.180000       12.0110           0
     12899 MEMB     89       OSM      H5F      HAL2     0.900000E-01   1.00800           0
     12900 MEMB     89       OSM      H5G      HAL2     0.900000E-01   1.00800           0
     12901 MEMB     89       OSM      C6F      CTL2    -0.180000       12.0110           0
     12902 MEMB     89       OSM      H6F      HAL2     0.900000E-01   1.00800           0
     12903 MEMB     89       OSM      H6G      HAL2     0.900000E-01   1.00800           0
     12904 MEMB     89       OSM      C7F      CTL2    -0.180000       12.0110           0
     12905 MEMB     89       OSM      H7F      HAL2     0.900000E-01   1.00800           0
     12906 MEMB     89       OSM      H7G      HAL2     0.900000E-01   1.00800           0
     12907 MEMB     89       OSM      C8F      CTL2    -0.180000       12.0110           0
     12908 MEMB     89       OSM      H8F      HAL2     0.900000E-01   1.00800           0
     12909 MEMB     89       OSM      H8G      HAL2     0.900000E-01   1.00800           0
     12910 MEMB     89       OSM      C9F      CEL1    -0.150000       12.0110           0
     12911 MEMB     89       OSM      H9F      HEL1     0.150000       1.00800           0
     12912 MEMB     89       OSM      C10F     CEL1    -0.150000       12.0110           0
     12913 MEMB     89       OSM      H10F     HEL1     0.150000       1.00800           0
     12914 MEMB     89       OSM      C11F     CTL2    -0.180000       12.0110           0
     12915 MEMB     89       OSM      H11F     HAL2     0.900000E-01   1.00800           0
     12916 MEMB     89       OSM      H11G     HAL2     0.900000E-01   1.00800           0
     12917 MEMB     89       OSM      C12F     CTL2    -0.180000       12.0110           0
     12918 MEMB     89       OSM      H12F     HAL2     0.900000E-01   1.00800           0
     12919 MEMB     89       OSM      H12G     HAL2     0.900000E-01   1.00800           0
     12920 MEMB     89       OSM      C13F     CTL2    -0.180000       12.0110           0
     12921 MEMB     89       OSM      H13F     HAL2     0.900000E-01   1.00800           0
     12922 MEMB     89       OSM      H13G     HAL2     0.900000E-01   1.00800           0
     12923 MEMB     89       OSM      C14F     CTL2    -0.180000       12.0110           0
     12924 MEMB     89       OSM      H14F     HAL2     0.900000E-01   1.00800           0
     12925 MEMB     89       OSM      H14G     HAL2     0.900000E-01   1.00800           0
     12926 MEMB     89       OSM      C15F     CTL2    -0.180000       12.0110           0
     12927 MEMB     89       OSM      H15F     HAL2     0.900000E-01   1.00800           0
     12928 MEMB     89       OSM      H15G     HAL2     0.900000E-01   1.00800           0
     12929 MEMB     89       OSM      C16F     CTL2    -0.180000       12.0110           0
     12930 MEMB     89       OSM      H16F     HAL2     0.900000E-01   1.00800           0
     12931 MEMB     89       OSM      H16G     HAL2     0.900000E-01   1.00800           0
     12932 MEMB     89       OSM      C17F     CTL2    -0.180000       12.0110           0
     12933 MEMB     89       OSM      H17F     HAL2     0.900000E-01   1.00800           0
     12934 MEMB     89       OSM      H17G     HAL2     0.900000E-01   1.00800           0
     12935 MEMB     89       OSM      C18F     CTL3    -0.270000       12.0110           0
     12936 MEMB     89       OSM      H18F     HAL3     0.900000E-01   1.00800           0
     12937 MEMB     89       OSM      H18G     HAL3     0.900000E-01   1.00800           0
     12938 MEMB     89       OSM      H18H     HAL3     0.900000E-01   1.00800           0
     12939 MEMB     98       OSM      N        NTL     -0.600000       14.0070           0
     12940 MEMB     98       OSM      C15      CTL5    -0.350000       12.0110           0
     12941 MEMB     98       OSM      H15A     HL       0.250000       1.00800           0
     12942 MEMB     98       OSM      H15B     HL       0.250000       1.00800           0
     12943 MEMB     98       OSM      H15C     HL       0.250000       1.00800           0
     12944 MEMB     98       OSM      C14      CTL5    -0.350000       12.0110           0
     12945 MEMB     98       OSM      H14A     HL       0.250000       1.00800           0
     12946 MEMB     98       OSM      H14B     HL       0.250000       1.00800           0
     12947 MEMB     98       OSM      H14C     HL       0.250000       1.00800           0
     12948 MEMB     98       OSM      C13      CTL5    -0.350000       12.0110           0
     12949 MEMB     98       OSM      H13A     HL       0.250000       1.00800           0
     12950 MEMB     98       OSM      H13B     HL       0.250000       1.00800           0
     12951 MEMB     98       OSM      H13C     HL       0.250000       1.00800           0
     12952 MEMB     98       OSM      C12      CTL2    -0.100000       12.0110           0
     12953 MEMB     98       OSM      H12A     HL       0.250000       1.00800           0
     12954 MEMB     98       OSM      H12B     HL       0.250000       1.00800           0
     12955 MEMB     98       OSM      C11      CTL2    -0.800000E-01   12.0110           0
     12956 MEMB     98       OSM      H11A     HAL2     0.900000E-01   1.00800           0
     12957 MEMB     98       OSM      H11B     HAL2     0.900000E-01   1.00800           0
     12958 MEMB     98       OSM      P        PL       1.500000       30.9740           0
     12959 MEMB     98       OSM      O13      O2L     -0.780000       15.9994           0
     12960 MEMB     98       OSM      O14      O2L     -0.780000       15.9994           0
     12961 MEMB     98       OSM      O11      OSLP    -0.570000       15.9994           0
     12962 MEMB     98       OSM      O12      OSLP    -0.570000       15.9994           0
     12963 MEMB     98       OSM      C1S      CTL2    -0.800000E-01   12.0110           0
     12964 MEMB     98       OSM      H1S      HAL2     0.900000E-01   1.00800           0
     12965 MEMB     98       OSM      H1T      HAL2     0.900000E-01   1.00800           0
     12966 MEMB     98       OSM      NF       NHL     -0.700000       14.0070           0
     12967 MEMB     98       OSM      HNF      H        0.350000       1.00800           0
     12968 MEMB     98       OSM      C2S      CTL1     0.300000       12.0110           0
     12969 MEMB     98       OSM      H2S      HAL1     0.500000E-01   1.00800           0
     12970 MEMB     98       OSM      C3S      CTO1     0.500000       12.0110           0
     12971 MEMB     98       OSM      H3S      HAL1    -0.110000       1.00800           0
     12972 MEMB     98       OSM      O3       OHL     -0.690000       15.9994           0
     12973 MEMB     98       OSM      HO3      HOL      0.300000       1.00800           0
     12974 MEMB     98       OSM      C4S      CEL3    -0.150000       12.0110           0
     12975 MEMB     98       OSM      H4S      HEL1     0.150000       1.00800           0
     12976 MEMB     98       OSM      C5S      CEL3    -0.150000       12.0110           0
     12977 MEMB     98       OSM      H5S      HEL1     0.150000       1.00800           0
     12978 MEMB     98       OSM      C6S      CTL2    -0.180000       12.0110           0
     12979 MEMB     98       OSM      H6S      HAL2     0.900000E-01   1.00800           0
     12980 MEMB     98       OSM      H6T      HAL2     0.900000E-01   1.00800           0
     12981 MEMB     98       OSM      C7S      CTL2    -0.180000       12.0110           0
     12982 MEMB     98       OSM      H7S      HAL2     0.900000E-01   1.00800           0
     12983 MEMB     98       OSM      H7T      HAL2     0.900000E-01   1.00800           0
     12984 MEMB     98       OSM      C8S      CTL2    -0.180000       12.0110           0
     12985 MEMB     98       OSM      H8S      HAL2     0.900000E-01   1.00800           0
     12986 MEMB     98       OSM      H8T      HAL2     0.900000E-01   1.00800           0
     12987 MEMB     98       OSM      C9S      CTL2    -0.180000       12.0110           0
     12988 MEMB     98       OSM      H9S      HAL2     0.900000E-01   1.00800           0
     12989 MEMB     98       OSM      H9T      HAL2     0.900000E-01   1.00800           0
     12990 MEMB     98       OSM      C10S     CTL2    -0.180000       12.0110           0
     12991 MEMB     98       OSM      H10S     HAL2     0.900000E-01   1.00800           0
     12992 MEMB     98       OSM      H10T     HAL2     0.900000E-01   1.00800           0
     12993 MEMB     98       OSM      C11S     CTL2    -0.180000       12.0110           0
     12994 MEMB     98       OSM      H11S     HAL2     0.900000E-01   1.00800           0
     12995 MEMB     98       OSM      H11T     HAL2     0.900000E-01   1.00800           0
     12996 MEMB     98       OSM      C12S     CTL2    -0.180000       12.0110           0
     12997 MEMB     98       OSM      H12S     HAL2     0.900000E-01   1.00800           0
     12998 MEMB     98       OSM      H12T     HAL2     0.900000E-01   1.00800           0
     12999 MEMB     98       OSM      C13S     CTL2    -0.180000       12.0110           0
     13000 MEMB     98       OSM      H13S     HAL2     0.900000E-01   1.00800           0
     13001 MEMB     98       OSM      H13T     HAL2     0.900000E-01   1.00800           0
     13002 MEMB     98       OSM      C14S     CTL2    -0.180000       12.0110           0
     13003 MEMB     98       OSM      H14S     HAL2     0.900000E-01   1.00800           0
     13004 MEMB     98       OSM      H14T     HAL2     0.900000E-01   1.00800           0
     13005 MEMB     98       OSM      C15S     CTL2    -0.180000       12.0110           0
     13006 MEMB     98       OSM      H15S     HAL2     0.900000E-01   1.00800           0
     13007 MEMB     98       OSM      H15T     HAL2     0.900000E-01   1.00800           0
     13008 MEMB     98       OSM      C16S     CTL2    -0.180000       12.0110           0
     13009 MEMB     98       OSM      H16S     HAL2     0.900000E-01   1.00800           0
     13010 MEMB     98       OSM      H16T     HAL2     0.900000E-01   1.00800           0
     13011 MEMB     98       OSM      C17S     CTL2    -0.180000       12.0110           0
     13012 MEMB     98       OSM      H17S     HAL2     0.900000E-01   1.00800           0
     13013 MEMB     98       OSM      H17T     HAL2     0.900000E-01   1.00800           0
     13014 MEMB     98       OSM      C18S     CTL3    -0.270000       12.0110           0
     13015 MEMB     98       OSM      H18S     HAL3     0.900000E-01   1.00800           0
     13016 MEMB     98       OSM      H18T     HAL3     0.900000E-01   1.00800           0
     13017 MEMB     98       OSM      H18U     HAL3     0.900000E-01   1.00800           0
     13018 MEMB     98       OSM      C1F      C        0.550000       12.0110           0
     13019 MEMB     98       OSM      OF       O       -0.600000       15.9994           0
     13020 MEMB     98       OSM      C2F      CTL2    -0.700000E-01   12.0110           0
     13021 MEMB     98       OSM      H2F      HAL2     0.600000E-01   1.00800           0
     13022 MEMB     98       OSM      H2G      HAL2     0.600000E-01   1.00800           0
     13023 MEMB     98       OSM      C3F      CTL2    -0.180000       12.0110           0
     13024 MEMB     98       OSM      H3F      HAL2     0.900000E-01   1.00800           0
     13025 MEMB     98       OSM      H3G      HAL2     0.900000E-01   1.00800           0
     13026 MEMB     98       OSM      C4F      CTL2    -0.180000       12.0110           0
     13027 MEMB     98       OSM      H4F      HAL2     0.900000E-01   1.00800           0
     13028 MEMB     98       OSM      H4G      HAL2     0.900000E-01   1.00800           0
     13029 MEMB     98       OSM      C5F      CTL2    -0.180000       12.0110           0
     13030 MEMB     98       OSM      H5F      HAL2     0.900000E-01   1.00800           0
     13031 MEMB     98       OSM      H5G      HAL2     0.900000E-01   1.00800           0
     13032 MEMB     98       OSM      C6F      CTL2    -0.180000       12.0110           0
     13033 MEMB     98       OSM      H6F      HAL2     0.900000E-01   1.00800           0
     13034 MEMB     98       OSM      H6G      HAL2     0.900000E-01   1.00800           0
     13035 MEMB     98       OSM      C7F      CTL2    -0.180000       12.0110           0
     13036 MEMB     98       OSM      H7F      HAL2     0.900000E-01   1.00800           0
     13037 MEMB     98       OSM      H7G      HAL2     0.900000E-01   1.00800           0
     13038 MEMB     98       OSM      C8F      CTL2    -0.180000       12.0110           0
     13039 MEMB     98       OSM      H8F      HAL2     0.900000E-01   1.00800           0
     13040 MEMB     98       OSM      H8G      HAL2     0.900000E-01   1.00800           0
     13041 MEMB     98       OSM      C9F      CEL1    -0.150000       12.0110           0
     13042 MEMB     98       OSM      H9F      HEL1     0.150000       1.00800           0
     13043 MEMB     98       OSM      C10F     CEL1    -0.150000       12.0110           0
     13044 MEMB     98       OSM      H10F     HEL1     0.150000       1.00800           0
     13045 MEMB     98       OSM      C11F     CTL2    -0.180000       12.0110           0
     13046 MEMB     98       OSM      H11F     HAL2     0.900000E-01   1.00800           0
     13047 MEMB     98       OSM      H11G     HAL2     0.900000E-01   1.00800           0
     13048 MEMB     98       OSM      C12F     CTL2    -0.180000       12.0110           0
     13049 MEMB     98       OSM      H12F     HAL2     0.900000E-01   1.00800           0
     13050 MEMB     98       OSM      H12G     HAL2     0.900000E-01   1.00800           0
     13051 MEMB     98       OSM      C13F     CTL2    -0.180000       12.0110           0
     13052 MEMB     98       OSM      H13F     HAL2     0.900000E-01   1.00800           0
     13053 MEMB     98       OSM      H13G     HAL2     0.900000E-01   1.00800           0
     13054 MEMB     98       OSM      C14F     CTL2    -0.180000       12.0110           0
     13055 MEMB     98       OSM      H14F     HAL2     0.900000E-01   1.00800           0
     13056 MEMB     98       OSM      H14G     HAL2     0.900000E-01   1.00800           0
     13057 MEMB     98       OSM      C15F     CTL2    -0.180000       12.0110           0
     13058 MEMB     98       OSM      H15F     HAL2     0.900000E-01   1.00800           0
     13059 MEMB     98       OSM      H15G     HAL2     0.900000E-01   1.00800           0
     13060 MEMB     98       OSM      C16F     CTL2    -0.180000       12.0110           0
     13061 MEMB     98       OSM      H16F     HAL2     0.900000E-01   1.00800           0
     13062 MEMB     98       OSM      H16G     HAL2     0.900000E-01   1.00800           0
     13063 MEMB     98       OSM      C17F     CTL2    -0.180000       12.0110           0
     13064 MEMB     98       OSM      H17F     HAL2     0.900000E-01   1.00800           0
     13065 MEMB     98       OSM      H17G     HAL2     0.900000E-01   1.00800           0
     13066 MEMB     98       OSM      C18F     CTL3    -0.270000       12.0110           0
     13067 MEMB     98       OSM      H18F     HAL3     0.900000E-01   1.00800           0
     13068 MEMB     98       OSM      H18G     HAL3     0.900000E-01   1.00800           0
     13069 MEMB     98       OSM      H18H     HAL3     0.900000E-01   1.00800           0
     13070 MEMB     105      OSM      N        NTL     -0.600000       14.0070           0
     13071 MEMB     105      OSM      C15      CTL5    -0.350000       12.0110           0
     13072 MEMB     105      OSM      H15A     HL       0.250000       1.00800           0
     13073 MEMB     105      OSM      H15B     HL       0.250000       1.00800           0
     13074 MEMB     105      OSM      H15C     HL       0.250000       1.00800           0
     13075 MEMB     105      OSM      C14      CTL5    -0.350000       12.0110           0
     13076 MEMB     105      OSM      H14A     HL       0.250000       1.00800           0
     13077 MEMB     105      OSM      H14B     HL       0.250000       1.00800           0
     13078 MEMB     105      OSM      H14C     HL       0.250000       1.00800           0
     13079 MEMB     105      OSM      C13      CTL5    -0.350000       12.0110           0
     13080 MEMB     105      OSM      H13A     HL       0.250000       1.00800           0
     13081 MEMB     105      OSM      H13B     HL       0.250000       1.00800           0
     13082 MEMB     105      OSM      H13C     HL       0.250000       1.00800           0
     13083 MEMB     105      OSM      C12      CTL2    -0.100000       12.0110           0
     13084 MEMB     105      OSM      H12A     HL       0.250000       1.00800           0
     13085 MEMB     105      OSM      H12B     HL       0.250000       1.00800           0
     13086 MEMB     105      OSM      C11      CTL2    -0.800000E-01   12.0110           0
     13087 MEMB     105      OSM      H11A     HAL2     0.900000E-01   1.00800           0
     13088 MEMB     105      OSM      H11B     HAL2     0.900000E-01   1.00800           0
     13089 MEMB     105      OSM      P        PL       1.500000       30.9740           0
     13090 MEMB     105      OSM      O13      O2L     -0.780000       15.9994           0
     13091 MEMB     105      OSM      O14      O2L     -0.780000       15.9994           0
     13092 MEMB     105      OSM      O11      OSLP    -0.570000       15.9994           0
     13093 MEMB     105      OSM      O12      OSLP    -0.570000       15.9994           0
     13094 MEMB     105      OSM      C1S      CTL2    -0.800000E-01   12.0110           0
     13095 MEMB     105      OSM      H1S      HAL2     0.900000E-01   1.00800           0
     13096 MEMB     105      OSM      H1T      HAL2     0.900000E-01   1.00800           0
     13097 MEMB     105      OSM      NF       NHL     -0.700000       14.0070           0
     13098 MEMB     105      OSM      HNF      H        0.350000       1.00800           0
     13099 MEMB     105      OSM      C2S      CTL1     0.300000       12.0110           0
     13100 MEMB     105      OSM      H2S      HAL1     0.500000E-01   1.00800           0
     13101 MEMB     105      OSM      C3S      CTO1     0.500000       12.0110           0
     13102 MEMB     105      OSM      H3S      HAL1    -0.110000       1.00800           0
     13103 MEMB     105      OSM      O3       OHL     -0.690000       15.9994           0
     13104 MEMB     105      OSM      HO3      HOL      0.300000       1.00800           0
     13105 MEMB     105      OSM      C4S      CEL3    -0.150000       12.0110           0
     13106 MEMB     105      OSM      H4S      HEL1     0.150000       1.00800           0
     13107 MEMB     105      OSM      C5S      CEL3    -0.150000       12.0110           0
     13108 MEMB     105      OSM      H5S      HEL1     0.150000       1.00800           0
     13109 MEMB     105      OSM      C6S      CTL2    -0.180000       12.0110           0
     13110 MEMB     105      OSM      H6S      HAL2     0.900000E-01   1.00800           0
     13111 MEMB     105      OSM      H6T      HAL2     0.900000E-01   1.00800           0
     13112 MEMB     105      OSM      C7S      CTL2    -0.180000       12.0110           0
     13113 MEMB     105      OSM      H7S      HAL2     0.900000E-01   1.00800           0
     13114 MEMB     105      OSM      H7T      HAL2     0.900000E-01   1.00800           0
     13115 MEMB     105      OSM      C8S      CTL2    -0.180000       12.0110           0
     13116 MEMB     105      OSM      H8S      HAL2     0.900000E-01   1.00800           0
     13117 MEMB     105      OSM      H8T      HAL2     0.900000E-01   1.00800           0
     13118 MEMB     105      OSM      C9S      CTL2    -0.180000       12.0110           0
     13119 MEMB     105      OSM      H9S      HAL2     0.900000E-01   1.00800           0
     13120 MEMB     105      OSM      H9T      HAL2     0.900000E-01   1.00800           0
     13121 MEMB     105      OSM      C10S     CTL2    -0.180000       12.0110           0
     13122 MEMB     105      OSM      H10S     HAL2     0.900000E-01   1.00800           0
     13123 MEMB     105      OSM      H10T     HAL2     0.900000E-01   1.00800           0
     13124 MEMB     105      OSM      C11S     CTL2    -0.180000       12.0110           0
     13125 MEMB     105      OSM      H11S     HAL2     0.900000E-01   1.00800           0
     13126 MEMB     105      OSM      H11T     HAL2     0.900000E-01   1.00800           0
     13127 MEMB     105      OSM      C12S     CTL2    -0.180000       12.0110           0
     13128 MEMB     105      OSM      H12S     HAL2     0.900000E-01   1.00800           0
     13129 MEMB     105      OSM      H12T     HAL2     0.900000E-01   1.00800           0
     13130 MEMB     105      OSM      C13S     CTL2    -0.180000       12.0110           0
     13131 MEMB     105      OSM      H13S     HAL2     0.900000E-01   1.00800           0
     13132 MEMB     105      OSM      H13T     HAL2     0.900000E-01   1.00800           0
     13133 MEMB     105      OSM      C14S     CTL2    -0.180000       12.0110           0
     13134 MEMB     105      OSM      H14S     HAL2     0.900000E-01   1.00800           0
     13135 MEMB     105      OSM      H14T     HAL2     0.900000E-01   1.00800           0
     13136 MEMB     105      OSM      C15S     CTL2    -0.180000       12.0110           0
     13137 MEMB     105      OSM      H15S     HAL2     0.900000E-01   1.00800           0
     13138 MEMB     105      OSM      H15T     HAL2     0.900000E-01   1.00800           0
     13139 MEMB     105      OSM      C16S     CTL2    -0.180000       12.0110           0
     13140 MEMB     105      OSM      H16S     HAL2     0.900000E-01   1.00800           0
     13141 MEMB     105      OSM      H16T     HAL2     0.900000E-01   1.00800           0
     13142 MEMB     105      OSM      C17S     CTL2    -0.180000       12.0110           0
     13143 MEMB     105      OSM      H17S     HAL2     0.900000E-01   1.00800           0
     13144 MEMB     105      OSM      H17T     HAL2     0.900000E-01   1.00800           0
     13145 MEMB     105      OSM      C18S     CTL3    -0.270000       12.0110           0
     13146 MEMB     105      OSM      H18S     HAL3     0.900000E-01   1.00800           0
     13147 MEMB     105      OSM      H18T     HAL3     0.900000E-01   1.00800           0
     13148 MEMB     105      OSM      H18U     HAL3     0.900000E-01   1.00800           0
     13149 MEMB     105      OSM      C1F      C        0.550000       12.0110           0
     13150 MEMB     105      OSM      OF       O       -0.600000       15.9994           0
     13151 MEMB     105      OSM      C2F      CTL2    -0.700000E-01   12.0110           0
     13152 MEMB     105      OSM      H2F      HAL2     0.600000E-01   1.00800           0
     13153 MEMB     105      OSM      H2G      HAL2     0.600000E-01   1.00800           0
     13154 MEMB     105      OSM      C3F      CTL2    -0.180000       12.0110           0
     13155 MEMB     105      OSM      H3F      HAL2     0.900000E-01   1.00800           0
     13156 MEMB     105      OSM      H3G      HAL2     0.900000E-01   1.00800           0
     13157 MEMB     105      OSM      C4F      CTL2    -0.180000       12.0110           0
     13158 MEMB     105      OSM      H4F      HAL2     0.900000E-01   1.00800           0
     13159 MEMB     105      OSM      H4G      HAL2     0.900000E-01   1.00800           0
     13160 MEMB     105      OSM      C5F      CTL2    -0.180000       12.0110           0
     13161 MEMB     105      OSM      H5F      HAL2     0.900000E-01   1.00800           0
     13162 MEMB     105      OSM      H5G      HAL2     0.900000E-01   1.00800           0
     13163 MEMB     105      OSM      C6F      CTL2    -0.180000       12.0110           0
     13164 MEMB     105      OSM      H6F      HAL2     0.900000E-01   1.00800           0
     13165 MEMB     105      OSM      H6G      HAL2     0.900000E-01   1.00800           0
     13166 MEMB     105      OSM      C7F      CTL2    -0.180000       12.0110           0
     13167 MEMB     105      OSM      H7F      HAL2     0.900000E-01   1.00800           0
     13168 MEMB     105      OSM      H7G      HAL2     0.900000E-01   1.00800           0
     13169 MEMB     105      OSM      C8F      CTL2    -0.180000       12.0110           0
     13170 MEMB     105      OSM      H8F      HAL2     0.900000E-01   1.00800           0
     13171 MEMB     105      OSM      H8G      HAL2     0.900000E-01   1.00800           0
     13172 MEMB     105      OSM      C9F      CEL1    -0.150000       12.0110           0
     13173 MEMB     105      OSM      H9F      HEL1     0.150000       1.00800           0
     13174 MEMB     105      OSM      C10F     CEL1    -0.150000       12.0110           0
     13175 MEMB     105      OSM      H10F     HEL1     0.150000       1.00800           0
     13176 MEMB     105      OSM      C11F     CTL2    -0.180000       12.0110           0
     13177 MEMB     105      OSM      H11F     HAL2     0.900000E-01   1.00800           0
     13178 MEMB     105      OSM      H11G     HAL2     0.900000E-01   1.00800           0
     13179 MEMB     105      OSM      C12F     CTL2    -0.180000       12.0110           0
     13180 MEMB     105      OSM      H12F     HAL2     0.900000E-01   1.00800           0
     13181 MEMB     105      OSM      H12G     HAL2     0.900000E-01   1.00800           0
     13182 MEMB     105      OSM      C13F     CTL2    -0.180000       12.0110           0
     13183 MEMB     105      OSM      H13F     HAL2     0.900000E-01   1.00800           0
     13184 MEMB     105      OSM      H13G     HAL2     0.900000E-01   1.00800           0
     13185 MEMB     105      OSM      C14F     CTL2    -0.180000       12.0110           0
     13186 MEMB     105      OSM      H14F     HAL2     0.900000E-01   1.00800           0
     13187 MEMB     105      OSM      H14G     HAL2     0.900000E-01   1.00800           0
     13188 MEMB     105      OSM      C15F     CTL2    -0.180000       12.0110           0
     13189 MEMB     105      OSM      H15F     HAL2     0.900000E-01   1.00800           0
     13190 MEMB     105      OSM      H15G     HAL2     0.900000E-01   1.00800           0
     13191 MEMB     105      OSM      C16F     CTL2    -0.180000       12.0110           0
     13192 MEMB     105      OSM      H16F     HAL2     0.900000E-01   1.00800           0
     13193 MEMB     105      OSM      H16G     HAL2     0.900000E-01   1.00800           0
     13194 MEMB     105      OSM      C17F     CTL2    -0.180000       12.0110           0
     13195 MEMB     105      OSM      H17F     HAL2     0.900000E-01   1.00800           0
     13196 MEMB     105      OSM      H17G     HAL2     0.900000E-01   1.00800           0
     13197 MEMB     105      OSM      C18F     CTL3    -0.270000       12.0110           0
     13198 MEMB     105      OSM      H18F     HAL3     0.900000E-01   1.00800           0
     13199 MEMB     105      OSM      H18G     HAL3     0.900000E-01   1.00800           0
     13200 MEMB     105      OSM      H18H     HAL3     0.900000E-01   1.00800           0
     13201 MEMB     107      OSM      N        NTL     -0.600000       14.0070           0
     13202 MEMB     107      OSM      C15      CTL5    -0.350000       12.0110           0
     13203 MEMB     107      OSM      H15A     HL       0.250000       1.00800           0
     13204 MEMB     107      OSM      H15B     HL       0.250000       1.00800           0
     13205 MEMB     107      OSM      H15C     HL       0.250000       1.00800           0
     13206 MEMB     107      OSM      C14      CTL5    -0.350000       12.0110           0
     13207 MEMB     107      OSM      H14A     HL       0.250000       1.00800           0
     13208 MEMB     107      OSM      H14B     HL       0.250000       1.00800           0
     13209 MEMB     107      OSM      H14C     HL       0.250000       1.00800           0
     13210 MEMB     107      OSM      C13      CTL5    -0.350000       12.0110           0
     13211 MEMB     107      OSM      H13A     HL       0.250000       1.00800           0
     13212 MEMB     107      OSM      H13B     HL       0.250000       1.00800           0
     13213 MEMB     107      OSM      H13C     HL       0.250000       1.00800           0
     13214 MEMB     107      OSM      C12      CTL2    -0.100000       12.0110           0
     13215 MEMB     107      OSM      H12A     HL       0.250000       1.00800           0
     13216 MEMB     107      OSM      H12B     HL       0.250000       1.00800           0
     13217 MEMB     107      OSM      C11      CTL2    -0.800000E-01   12.0110           0
     13218 MEMB     107      OSM      H11A     HAL2     0.900000E-01   1.00800           0
     13219 MEMB     107      OSM      H11B     HAL2     0.900000E-01   1.00800           0
     13220 MEMB     107      OSM      P        PL       1.500000       30.9740           0
     13221 MEMB     107      OSM      O13      O2L     -0.780000       15.9994           0
     13222 MEMB     107      OSM      O14      O2L     -0.780000       15.9994           0
     13223 MEMB     107      OSM      O11      OSLP    -0.570000       15.9994           0
     13224 MEMB     107      OSM      O12      OSLP    -0.570000       15.9994           0
     13225 MEMB     107      OSM      C1S      CTL2    -0.800000E-01   12.0110           0
     13226 MEMB     107      OSM      H1S      HAL2     0.900000E-01   1.00800           0
     13227 MEMB     107      OSM      H1T      HAL2     0.900000E-01   1.00800           0
     13228 MEMB     107      OSM      NF       NHL     -0.700000       14.0070           0
     13229 MEMB     107      OSM      HNF      H        0.350000       1.00800           0
     13230 MEMB     107      OSM      C2S      CTL1     0.300000       12.0110           0
     13231 MEMB     107      OSM      H2S      HAL1     0.500000E-01   1.00800           0
     13232 MEMB     107      OSM      C3S      CTO1     0.500000       12.0110           0
     13233 MEMB     107      OSM      H3S      HAL1    -0.110000       1.00800           0
     13234 MEMB     107      OSM      O3       OHL     -0.690000       15.9994           0
     13235 MEMB     107      OSM      HO3      HOL      0.300000       1.00800           0
     13236 MEMB     107      OSM      C4S      CEL3    -0.150000       12.0110           0
     13237 MEMB     107      OSM      H4S      HEL1     0.150000       1.00800           0
     13238 MEMB     107      OSM      C5S      CEL3    -0.150000       12.0110           0
     13239 MEMB     107      OSM      H5S      HEL1     0.150000       1.00800           0
     13240 MEMB     107      OSM      C6S      CTL2    -0.180000       12.0110           0
     13241 MEMB     107      OSM      H6S      HAL2     0.900000E-01   1.00800           0
     13242 MEMB     107      OSM      H6T      HAL2     0.900000E-01   1.00800           0
     13243 MEMB     107      OSM      C7S      CTL2    -0.180000       12.0110           0
     13244 MEMB     107      OSM      H7S      HAL2     0.900000E-01   1.00800           0
     13245 MEMB     107      OSM      H7T      HAL2     0.900000E-01   1.00800           0
     13246 MEMB     107      OSM      C8S      CTL2    -0.180000       12.0110           0
     13247 MEMB     107      OSM      H8S      HAL2     0.900000E-01   1.00800           0
     13248 MEMB     107      OSM      H8T      HAL2     0.900000E-01   1.00800           0
     13249 MEMB     107      OSM      C9S      CTL2    -0.180000       12.0110           0
     13250 MEMB     107      OSM      H9S      HAL2     0.900000E-01   1.00800           0
     13251 MEMB     107      OSM      H9T      HAL2     0.900000E-01   1.00800           0
     13252 MEMB     107      OSM      C10S     CTL2    -0.180000       12.0110           0
     13253 MEMB     107      OSM      H10S     HAL2     0.900000E-01   1.00800           0
     13254 MEMB     107      OSM      H10T     HAL2     0.900000E-01   1.00800           0
     13255 MEMB     107      OSM      C11S     CTL2    -0.180000       12.0110           0
     13256 MEMB     107      OSM      H11S     HAL2     0.900000E-01   1.00800           0
     13257 MEMB     107      OSM      H11T     HAL2     0.900000E-01   1.00800           0
     13258 MEMB     107      OSM      C12S     CTL2    -0.180000       12.0110           0
     13259 MEMB     107      OSM      H12S     HAL2     0.900000E-01   1.00800           0
     13260 MEMB     107      OSM      H12T     HAL2     0.900000E-01   1.00800           0
     13261 MEMB     107      OSM      C13S     CTL2    -0.180000       12.0110           0
     13262 MEMB     107      OSM      H13S     HAL2     0.900000E-01   1.00800           0
     13263 MEMB     107      OSM      H13T     HAL2     0.900000E-01   1.00800           0
     13264 MEMB     107      OSM      C14S     CTL2    -0.180000       12.0110           0
     13265 MEMB     107      OSM      H14S     HAL2     0.900000E-01   1.00800           0
     13266 MEMB     107      OSM      H14T     HAL2     0.900000E-01   1.00800           0
     13267 MEMB     107      OSM      C15S     CTL2    -0.180000       12.0110           0
     13268 MEMB     107      OSM      H15S     HAL2     0.900000E-01   1.00800           0
     13269 MEMB     107      OSM      H15T     HAL2     0.900000E-01   1.00800           0
     13270 MEMB     107      OSM      C16S     CTL2    -0.180000       12.0110           0
     13271 MEMB     107      OSM      H16S     HAL2     0.900000E-01   1.00800           0
     13272 MEMB     107      OSM      H16T     HAL2     0.900000E-01   1.00800           0
     13273 MEMB     107      OSM      C17S     CTL2    -0.180000       12.0110           0
     13274 MEMB     107      OSM      H17S     HAL2     0.900000E-01   1.00800           0
     13275 MEMB     107      OSM      H17T     HAL2     0.900000E-01   1.00800           0
     13276 MEMB     107      OSM      C18S     CTL3    -0.270000       12.0110           0
     13277 MEMB     107      OSM      H18S     HAL3     0.900000E-01   1.00800           0
     13278 MEMB     107      OSM      H18T     HAL3     0.900000E-01   1.00800           0
     13279 MEMB     107      OSM      H18U     HAL3     0.900000E-01   1.00800           0
     13280 MEMB     107      OSM      C1F      C        0.550000       12.0110           0
     13281 MEMB     107      OSM      OF       O       -0.600000       15.9994           0
     13282 MEMB     107      OSM      C2F      CTL2    -0.700000E-01   12.0110           0
     13283 MEMB     107      OSM      H2F      HAL2     0.600000E-01   1.00800           0
     13284 MEMB     107      OSM      H2G      HAL2     0.600000E-01   1.00800           0
     13285 MEMB     107      OSM      C3F      CTL2    -0.180000       12.0110           0
     13286 MEMB     107      OSM      H3F      HAL2     0.900000E-01   1.00800           0
     13287 MEMB     107      OSM      H3G      HAL2     0.900000E-01   1.00800           0
     13288 MEMB     107      OSM      C4F      CTL2    -0.180000       12.0110           0
     13289 MEMB     107      OSM      H4F      HAL2     0.900000E-01   1.00800           0
     13290 MEMB     107      OSM      H4G      HAL2     0.900000E-01   1.00800           0
     13291 MEMB     107      OSM      C5F      CTL2    -0.180000       12.0110           0
     13292 MEMB     107      OSM      H5F      HAL2     0.900000E-01   1.00800           0
     13293 MEMB     107      OSM      H5G      HAL2     0.900000E-01   1.00800           0
     13294 MEMB     107      OSM      C6F      CTL2    -0.180000       12.0110           0
     13295 MEMB     107      OSM      H6F      HAL2     0.900000E-01   1.00800           0
     13296 MEMB     107      OSM      H6G      HAL2     0.900000E-01   1.00800           0
     13297 MEMB     107      OSM      C7F      CTL2    -0.180000       12.0110           0
     13298 MEMB     107      OSM      H7F      HAL2     0.900000E-01   1.00800           0
     13299 MEMB     107      OSM      H7G      HAL2     0.900000E-01   1.00800           0
     13300 MEMB     107      OSM      C8F      CTL2    -0.180000       12.0110           0
     13301 MEMB     107      OSM      H8F      HAL2     0.900000E-01   1.00800           0
     13302 MEMB     107      OSM      H8G      HAL2     0.900000E-01   1.00800           0
     13303 MEMB     107      OSM      C9F      CEL1    -0.150000       12.0110           0
     13304 MEMB     107      OSM      H9F      HEL1     0.150000       1.00800           0
     13305 MEMB     107      OSM      C10F     CEL1    -0.150000       12.0110           0
     13306 MEMB     107      OSM      H10F     HEL1     0.150000       1.00800           0
     13307 MEMB     107      OSM      C11F     CTL2    -0.180000       12.0110           0
     13308 MEMB     107      OSM      H11F     HAL2     0.900000E-01   1.00800           0
     13309 MEMB     107      OSM      H11G     HAL2     0.900000E-01   1.00800           0
     13310 MEMB     107      OSM      C12F     CTL2    -0.180000       12.0110           0
     13311 MEMB     107      OSM      H12F     HAL2     0.900000E-01   1.00800           0
     13312 MEMB     107      OSM      H12G     HAL2     0.900000E-01   1.00800           0
     13313 MEMB     107      OSM      C13F     CTL2    -0.180000       12.0110           0
     13314 MEMB     107      OSM      H13F     HAL2     0.900000E-01   1.00800           0
     13315 MEMB     107      OSM      H13G     HAL2     0.900000E-01   1.00800           0
     13316 MEMB     107      OSM      C14F     CTL2    -0.180000       12.0110           0
     13317 MEMB     107      OSM      H14F     HAL2     0.900000E-01   1.00800           0
     13318 MEMB     107      OSM      H14G     HAL2     0.900000E-01   1.00800           0
     13319 MEMB     107      OSM      C15F     CTL2    -0.180000       12.0110           0
     13320 MEMB     107      OSM      H15F     HAL2     0.900000E-01   1.00800           0
     13321 MEMB     107      OSM      H15G     HAL2     0.900000E-01   1.00800           0
     13322 MEMB     107      OSM      C16F     CTL2    -0.180000       12.0110           0
     13323 MEMB     107      OSM      H16F     HAL2     0.900000E-01   1.00800           0
     13324 MEMB     107      OSM      H16G     HAL2     0.900000E-01   1.00800           0
     13325 MEMB     107      OSM      C17F     CTL2    -0.180000       12.0110           0
     13326 MEMB     107      OSM      H17F     HAL2     0.900000E-01   1.00800           0
     13327 MEMB     107      OSM      H17G     HAL2     0.900000E-01   1.00800           0
     13328 MEMB     107      OSM      C18F     CTL3    -0.270000       12.0110           0
     13329 MEMB     107      OSM      H18F     HAL3     0.900000E-01   1.00800           0
     13330 MEMB     107      OSM      H18G     HAL3     0.900000E-01   1.00800           0
     13331 MEMB     107      OSM      H18H     HAL3     0.900000E-01   1.00800           0
     13332 MEMB     117      OSM      N        NTL     -0.600000       14.0070           0
     13333 MEMB     117      OSM      C15      CTL5    -0.350000       12.0110           0
     13334 MEMB     117      OSM      H15A     HL       0.250000       1.00800           0
     13335 MEMB     117      OSM      H15B     HL       0.250000       1.00800           0
     13336 MEMB     117      OSM      H15C     HL       0.250000       1.00800           0
     13337 MEMB     117      OSM      C14      CTL5    -0.350000       12.0110           0
     13338 MEMB     117      OSM      H14A     HL       0.250000       1.00800           0
     13339 MEMB     117      OSM      H14B     HL       0.250000       1.00800           0
     13340 MEMB     117      OSM      H14C     HL       0.250000       1.00800           0
     13341 MEMB     117      OSM      C13      CTL5    -0.350000       12.0110           0
     13342 MEMB     117      OSM      H13A     HL       0.250000       1.00800           0
     13343 MEMB     117      OSM      H13B     HL       0.250000       1.00800           0
     13344 MEMB     117      OSM      H13C     HL       0.250000       1.00800           0
     13345 MEMB     117      OSM      C12      CTL2    -0.100000       12.0110           0
     13346 MEMB     117      OSM      H12A     HL       0.250000       1.00800           0
     13347 MEMB     117      OSM      H12B     HL       0.250000       1.00800           0
     13348 MEMB     117      OSM      C11      CTL2    -0.800000E-01   12.0110           0
     13349 MEMB     117      OSM      H11A     HAL2     0.900000E-01   1.00800           0
     13350 MEMB     117      OSM      H11B     HAL2     0.900000E-01   1.00800           0
     13351 MEMB     117      OSM      P        PL       1.500000       30.9740           0
     13352 MEMB     117      OSM      O13      O2L     -0.780000       15.9994           0
     13353 MEMB     117      OSM      O14      O2L     -0.780000       15.9994           0
     13354 MEMB     117      OSM      O11      OSLP    -0.570000       15.9994           0
     13355 MEMB     117      OSM      O12      OSLP    -0.570000       15.9994           0
     13356 MEMB     117      OSM      C1S      CTL2    -0.800000E-01   12.0110           0
     13357 MEMB     117      OSM      H1S      HAL2     0.900000E-01   1.00800           0
     13358 MEMB     117      OSM      H1T      HAL2     0.900000E-01   1.00800           0
     13359 MEMB     117      OSM      NF       NHL     -0.700000       14.0070           0
     13360 MEMB     117      OSM      HNF      H        0.350000       1.00800           0
     13361 MEMB     117      OSM      C2S      CTL1     0.300000       12.0110           0
     13362 MEMB     117      OSM      H2S      HAL1     0.500000E-01   1.00800           0
     13363 MEMB     117      OSM      C3S      CTO1     0.500000       12.0110           0
     13364 MEMB     117      OSM      H3S      HAL1    -0.110000       1.00800           0
     13365 MEMB     117      OSM      O3       OHL     -0.690000       15.9994           0
     13366 MEMB     117      OSM      HO3      HOL      0.300000       1.00800           0
     13367 MEMB     117      OSM      C4S      CEL3    -0.150000       12.0110           0
     13368 MEMB     117      OSM      H4S      HEL1     0.150000       1.00800           0
     13369 MEMB     117      OSM      C5S      CEL3    -0.150000       12.0110           0
     13370 MEMB     117      OSM      H5S      HEL1     0.150000       1.00800           0
     13371 MEMB     117      OSM      C6S      CTL2    -0.180000       12.0110           0
     13372 MEMB     117      OSM      H6S      HAL2     0.900000E-01   1.00800           0
     13373 MEMB     117      OSM      H6T      HAL2     0.900000E-01   1.00800           0
     13374 MEMB     117      OSM      C7S      CTL2    -0.180000       12.0110           0
     13375 MEMB     117      OSM      H7S      HAL2     0.900000E-01   1.00800           0
     13376 MEMB     117      OSM      H7T      HAL2     0.900000E-01   1.00800           0
     13377 MEMB     117      OSM      C8S      CTL2    -0.180000       12.0110           0
     13378 MEMB     117      OSM      H8S      HAL2     0.900000E-01   1.00800           0
     13379 MEMB     117      OSM      H8T      HAL2     0.900000E-01   1.00800           0
     13380 MEMB     117      OSM      C9S      CTL2    -0.180000       12.0110           0
     13381 MEMB     117      OSM      H9S      HAL2     0.900000E-01   1.00800           0
     13382 MEMB     117      OSM      H9T      HAL2     0.900000E-01   1.00800           0
     13383 MEMB     117      OSM      C10S     CTL2    -0.180000       12.0110           0
     13384 MEMB     117      OSM      H10S     HAL2     0.900000E-01   1.00800           0
     13385 MEMB     117      OSM      H10T     HAL2     0.900000E-01   1.00800           0
     13386 MEMB     117      OSM      C11S     CTL2    -0.180000       12.0110           0
     13387 MEMB     117      OSM      H11S     HAL2     0.900000E-01   1.00800           0
     13388 MEMB     117      OSM      H11T     HAL2     0.900000E-01   1.00800           0
     13389 MEMB     117      OSM      C12S     CTL2    -0.180000       12.0110           0
     13390 MEMB     117      OSM      H12S     HAL2     0.900000E-01   1.00800           0
     13391 MEMB     117      OSM      H12T     HAL2     0.900000E-01   1.00800           0
     13392 MEMB     117      OSM      C13S     CTL2    -0.180000       12.0110           0
     13393 MEMB     117      OSM      H13S     HAL2     0.900000E-01   1.00800           0
     13394 MEMB     117      OSM      H13T     HAL2     0.900000E-01   1.00800           0
     13395 MEMB     117      OSM      C14S     CTL2    -0.180000       12.0110           0
     13396 MEMB     117      OSM      H14S     HAL2     0.900000E-01   1.00800           0
     13397 MEMB     117      OSM      H14T     HAL2     0.900000E-01   1.00800           0
     13398 MEMB     117      OSM      C15S     CTL2    -0.180000       12.0110           0
     13399 MEMB     117      OSM      H15S     HAL2     0.900000E-01   1.00800           0
     13400 MEMB     117      OSM      H15T     HAL2     0.900000E-01   1.00800           0
     13401 MEMB     117      OSM      C16S     CTL2    -0.180000       12.0110           0
     13402 MEMB     117      OSM      H16S     HAL2     0.900000E-01   1.00800           0
     13403 MEMB     117      OSM      H16T     HAL2     0.900000E-01   1.00800           0
     13404 MEMB     117      OSM      C17S     CTL2    -0.180000       12.0110           0
     13405 MEMB     117      OSM      H17S     HAL2     0.900000E-01   1.00800           0
     13406 MEMB     117      OSM      H17T     HAL2     0.900000E-01   1.00800           0
     13407 MEMB     117      OSM      C18S     CTL3    -0.270000       12.0110           0
     13408 MEMB     117      OSM      H18S     HAL3     0.900000E-01   1.00800           0
     13409 MEMB     117      OSM      H18T     HAL3     0.900000E-01   1.00800           0
     13410 MEMB     117      OSM      H18U     HAL3     0.900000E-01   1.00800           0
     13411 MEMB     117      OSM      C1F      C        0.550000       12.0110           0
     13412 MEMB     117      OSM      OF       O       -0.600000       15.9994           0
     13413 MEMB     117      OSM      C2F      CTL2    -0.700000E-01   12.0110           0
     13414 MEMB     117      OSM      H2F      HAL2     0.600000E-01   1.00800           0
     13415 MEMB     117      OSM      H2G      HAL2     0.600000E-01   1.00800           0
     13416 MEMB     117      OSM      C3F      CTL2    -0.180000       12.0110           0
     13417 MEMB     117      OSM      H3F      HAL2     0.900000E-01   1.00800           0
     13418 MEMB     117      OSM      H3G      HAL2     0.900000E-01   1.00800           0
     13419 MEMB     117      OSM      C4F      CTL2    -0.180000       12.0110           0
     13420 MEMB     117      OSM      H4F      HAL2     0.900000E-01   1.00800           0
     13421 MEMB     117      OSM      H4G      HAL2     0.900000E-01   1.00800           0
     13422 MEMB     117      OSM      C5F      CTL2    -0.180000       12.0110           0
     13423 MEMB     117      OSM      H5F      HAL2     0.900000E-01   1.00800           0
     13424 MEMB     117      OSM      H5G      HAL2     0.900000E-01   1.00800           0
     13425 MEMB     117      OSM      C6F      CTL2    -0.180000       12.0110           0
     13426 MEMB     117      OSM      H6F      HAL2     0.900000E-01   1.00800           0
     13427 MEMB     117      OSM      H6G      HAL2     0.900000E-01   1.00800           0
     13428 MEMB     117      OSM      C7F      CTL2    -0.180000       12.0110           0
     13429 MEMB     117      OSM      H7F      HAL2     0.900000E-01   1.00800           0
     13430 MEMB     117      OSM      H7G      HAL2     0.900000E-01   1.00800           0
     13431 MEMB     117      OSM      C8F      CTL2    -0.180000       12.0110           0
     13432 MEMB     117      OSM      H8F      HAL2     0.900000E-01   1.00800           0
     13433 MEMB     117      OSM      H8G      HAL2     0.900000E-01   1.00800           0
     13434 MEMB     117      OSM      C9F      CEL1    -0.150000       12.0110           0
     13435 MEMB     117      OSM      H9F      HEL1     0.150000       1.00800           0
     13436 MEMB     117      OSM      C10F     CEL1    -0.150000       12.0110           0
     13437 MEMB     117      OSM      H10F     HEL1     0.150000       1.00800           0
     13438 MEMB     117      OSM      C11F     CTL2    -0.180000       12.0110           0
     13439 MEMB     117      OSM      H11F     HAL2     0.900000E-01   1.00800           0
     13440 MEMB     117      OSM      H11G     HAL2     0.900000E-01   1.00800           0
     13441 MEMB     117      OSM      C12F     CTL2    -0.180000       12.0110           0
     13442 MEMB     117      OSM      H12F     HAL2     0.900000E-01   1.00800           0
     13443 MEMB     117      OSM      H12G     HAL2     0.900000E-01   1.00800           0
     13444 MEMB     117      OSM      C13F     CTL2    -0.180000       12.0110           0
     13445 MEMB     117      OSM      H13F     HAL2     0.900000E-01   1.00800           0
     13446 MEMB     117      OSM      H13G     HAL2     0.900000E-01   1.00800           0
     13447 MEMB     117      OSM      C14F     CTL2    -0.180000       12.0110           0
     13448 MEMB     117      OSM      H14F     HAL2     0.900000E-01   1.00800           0
     13449 MEMB     117      OSM      H14G     HAL2     0.900000E-01   1.00800           0
     13450 MEMB     117      OSM      C15F     CTL2    -0.180000       12.0110           0
     13451 MEMB     117      OSM      H15F     HAL2     0.900000E-01   1.00800           0
     13452 MEMB     117      OSM      H15G     HAL2     0.900000E-01   1.00800           0
     13453 MEMB     117      OSM      C16F     CTL2    -0.180000       12.0110           0
     13454 MEMB     117      OSM      H16F     HAL2     0.900000E-01   1.00800           0
     13455 MEMB     117      OSM      H16G     HAL2     0.900000E-01   1.00800           0
     13456 MEMB     117      OSM      C17F     CTL2    -0.180000       12.0110           0
     13457 MEMB     117      OSM      H17F     HAL2     0.900000E-01   1.00800           0
     13458 MEMB     117      OSM      H17G     HAL2     0.900000E-01   1.00800           0
     13459 MEMB     117      OSM      C18F     CTL3    -0.270000       12.0110           0
     13460 MEMB     117      OSM      H18F     HAL3     0.900000E-01   1.00800           0
     13461 MEMB     117      OSM      H18G     HAL3     0.900000E-01   1.00800           0
     13462 MEMB     117      OSM      H18H     HAL3     0.900000E-01   1.00800           0
     13463 MEMB     118      OSM      N        NTL     -0.600000       14.0070           0
     13464 MEMB     118      OSM      C15      CTL5    -0.350000       12.0110           0
     13465 MEMB     118      OSM      H15A     HL       0.250000       1.00800           0
     13466 MEMB     118      OSM      H15B     HL       0.250000       1.00800           0
     13467 MEMB     118      OSM      H15C     HL       0.250000       1.00800           0
     13468 MEMB     118      OSM      C14      CTL5    -0.350000       12.0110           0
     13469 MEMB     118      OSM      H14A     HL       0.250000       1.00800           0
     13470 MEMB     118      OSM      H14B     HL       0.250000       1.00800           0
     13471 MEMB     118      OSM      H14C     HL       0.250000       1.00800           0
     13472 MEMB     118      OSM      C13      CTL5    -0.350000       12.0110           0
     13473 MEMB     118      OSM      H13A     HL       0.250000       1.00800           0
     13474 MEMB     118      OSM      H13B     HL       0.250000       1.00800           0
     13475 MEMB     118      OSM      H13C     HL       0.250000       1.00800           0
     13476 MEMB     118      OSM      C12      CTL2    -0.100000       12.0110           0
     13477 MEMB     118      OSM      H12A     HL       0.250000       1.00800           0
     13478 MEMB     118      OSM      H12B     HL       0.250000       1.00800           0
     13479 MEMB     118      OSM      C11      CTL2    -0.800000E-01   12.0110           0
     13480 MEMB     118      OSM      H11A     HAL2     0.900000E-01   1.00800           0
     13481 MEMB     118      OSM      H11B     HAL2     0.900000E-01   1.00800           0
     13482 MEMB     118      OSM      P        PL       1.500000       30.9740           0
     13483 MEMB     118      OSM      O13      O2L     -0.780000       15.9994           0
     13484 MEMB     118      OSM      O14      O2L     -0.780000       15.9994           0
     13485 MEMB     118      OSM      O11      OSLP    -0.570000       15.9994           0
     13486 MEMB     118      OSM      O12      OSLP    -0.570000       15.9994           0
     13487 MEMB     118      OSM      C1S      CTL2    -0.800000E-01   12.0110           0
     13488 MEMB     118      OSM      H1S      HAL2     0.900000E-01   1.00800           0
     13489 MEMB     118      OSM      H1T      HAL2     0.900000E-01   1.00800           0
     13490 MEMB     118      OSM      NF       NHL     -0.700000       14.0070           0
     13491 MEMB     118      OSM      HNF      H        0.350000       1.00800           0
     13492 MEMB     118      OSM      C2S      CTL1     0.300000       12.0110           0
     13493 MEMB     118      OSM      H2S      HAL1     0.500000E-01   1.00800           0
     13494 MEMB     118      OSM      C3S      CTO1     0.500000       12.0110           0
     13495 MEMB     118      OSM      H3S      HAL1    -0.110000       1.00800           0
     13496 MEMB     118      OSM      O3       OHL     -0.690000       15.9994           0
     13497 MEMB     118      OSM      HO3      HOL      0.300000       1.00800           0
     13498 MEMB     118      OSM      C4S      CEL3    -0.150000       12.0110           0
     13499 MEMB     118      OSM      H4S      HEL1     0.150000       1.00800           0
     13500 MEMB     118      OSM      C5S      CEL3    -0.150000       12.0110           0
     13501 MEMB     118      OSM      H5S      HEL1     0.150000       1.00800           0
     13502 MEMB     118      OSM      C6S      CTL2    -0.180000       12.0110           0
     13503 MEMB     118      OSM      H6S      HAL2     0.900000E-01   1.00800           0
     13504 MEMB     118      OSM      H6T      HAL2     0.900000E-01   1.00800           0
     13505 MEMB     118      OSM      C7S      CTL2    -0.180000       12.0110           0
     13506 MEMB     118      OSM      H7S      HAL2     0.900000E-01   1.00800           0
     13507 MEMB     118      OSM      H7T      HAL2     0.900000E-01   1.00800           0
     13508 MEMB     118      OSM      C8S      CTL2    -0.180000       12.0110           0
     13509 MEMB     118      OSM      H8S      HAL2     0.900000E-01   1.00800           0
     13510 MEMB     118      OSM      H8T      HAL2     0.900000E-01   1.00800           0
     13511 MEMB     118      OSM      C9S      CTL2    -0.180000       12.0110           0
     13512 MEMB     118      OSM      H9S      HAL2     0.900000E-01   1.00800           0
     13513 MEMB     118      OSM      H9T      HAL2     0.900000E-01   1.00800           0
     13514 MEMB     118      OSM      C10S     CTL2    -0.180000       12.0110           0
     13515 MEMB     118      OSM      H10S     HAL2     0.900000E-01   1.00800           0
     13516 MEMB     118      OSM      H10T     HAL2     0.900000E-01   1.00800           0
     13517 MEMB     118      OSM      C11S     CTL2    -0.180000       12.0110           0
     13518 MEMB     118      OSM      H11S     HAL2     0.900000E-01   1.00800           0
     13519 MEMB     118      OSM      H11T     HAL2     0.900000E-01   1.00800           0
     13520 MEMB     118      OSM      C12S     CTL2    -0.180000       12.0110           0
     13521 MEMB     118      OSM      H12S     HAL2     0.900000E-01   1.00800           0
     13522 MEMB     118      OSM      H12T     HAL2     0.900000E-01   1.00800           0
     13523 MEMB     118      OSM      C13S     CTL2    -0.180000       12.0110           0
     13524 MEMB     118      OSM      H13S     HAL2     0.900000E-01   1.00800           0
     13525 MEMB     118      OSM      H13T     HAL2     0.900000E-01   1.00800           0
     13526 MEMB     118      OSM      C14S     CTL2    -0.180000       12.0110           0
     13527 MEMB     118      OSM      H14S     HAL2     0.900000E-01   1.00800           0
     13528 MEMB     118      OSM      H14T     HAL2     0.900000E-01   1.00800           0
     13529 MEMB     118      OSM      C15S     CTL2    -0.180000       12.0110           0
     13530 MEMB     118      OSM      H15S     HAL2     0.900000E-01   1.00800           0
     13531 MEMB     118      OSM      H15T     HAL2     0.900000E-01   1.00800           0
     13532 MEMB     118      OSM      C16S     CTL2    -0.180000       12.0110           0
     13533 MEMB     118      OSM      H16S     HAL2     0.900000E-01   1.00800           0
     13534 MEMB     118      OSM      H16T     HAL2     0.900000E-01   1.00800           0
     13535 MEMB     118      OSM      C17S     CTL2    -0.180000       12.0110           0
     13536 MEMB     118      OSM      H17S     HAL2     0.900000E-01   1.00800           0
     13537 MEMB     118      OSM      H17T     HAL2     0.900000E-01   1.00800           0
     13538 MEMB     118      OSM      C18S     CTL3    -0.270000       12.0110           0
     13539 MEMB     118      OSM      H18S     HAL3     0.900000E-01   1.00800           0
     13540 MEMB     118      OSM      H18T     HAL3     0.900000E-01   1.00800           0
     13541 MEMB     118      OSM      H18U     HAL3     0.900000E-01   1.00800           0
     13542 MEMB     118      OSM      C1F      C        0.550000       12.0110           0
     13543 MEMB     118      OSM      OF       O       -0.600000       15.9994           0
     13544 MEMB     118      OSM      C2F      CTL2    -0.700000E-01   12.0110           0
     13545 MEMB     118      OSM      H2F      HAL2     0.600000E-01   1.00800           0
     13546 MEMB     118      OSM      H2G      HAL2     0.600000E-01   1.00800           0
     13547 MEMB     118      OSM      C3F      CTL2    -0.180000       12.0110           0
     13548 MEMB     118      OSM      H3F      HAL2     0.900000E-01   1.00800           0
     13549 MEMB     118      OSM      H3G      HAL2     0.900000E-01   1.00800           0
     13550 MEMB     118      OSM      C4F      CTL2    -0.180000       12.0110           0
     13551 MEMB     118      OSM      H4F      HAL2     0.900000E-01   1.00800           0
     13552 MEMB     118      OSM      H4G      HAL2     0.900000E-01   1.00800           0
     13553 MEMB     118      OSM      C5F      CTL2    -0.180000       12.0110           0
     13554 MEMB     118      OSM      H5F      HAL2     0.900000E-01   1.00800           0
     13555 MEMB     118      OSM      H5G      HAL2     0.900000E-01   1.00800           0
     13556 MEMB     118      OSM      C6F      CTL2    -0.180000       12.0110           0
     13557 MEMB     118      OSM      H6F      HAL2     0.900000E-01   1.00800           0
     13558 MEMB     118      OSM      H6G      HAL2     0.900000E-01   1.00800           0
     13559 MEMB     118      OSM      C7F      CTL2    -0.180000       12.0110           0
     13560 MEMB     118      OSM      H7F      HAL2     0.900000E-01   1.00800           0
     13561 MEMB     118      OSM      H7G      HAL2     0.900000E-01   1.00800           0
     13562 MEMB     118      OSM      C8F      CTL2    -0.180000       12.0110           0
     13563 MEMB     118      OSM      H8F      HAL2     0.900000E-01   1.00800           0
     13564 MEMB     118      OSM      H8G      HAL2     0.900000E-01   1.00800           0
     13565 MEMB     118      OSM      C9F      CEL1    -0.150000       12.0110           0
     13566 MEMB     118      OSM      H9F      HEL1     0.150000       1.00800           0
     13567 MEMB     118      OSM      C10F     CEL1    -0.150000       12.0110           0
     13568 MEMB     118      OSM      H10F     HEL1     0.150000       1.00800           0
     13569 MEMB     118      OSM      C11F     CTL2    -0.180000       12.0110           0
     13570 MEMB     118      OSM      H11F     HAL2     0.900000E-01   1.00800           0
     13571 MEMB     118      OSM      H11G     HAL2     0.900000E-01   1.00800           0
     13572 MEMB     118      OSM      C12F     CTL2    -0.180000       12.0110           0
     13573 MEMB     118      OSM      H12F     HAL2     0.900000E-01   1.00800           0
     13574 MEMB     118      OSM      H12G     HAL2     0.900000E-01   1.00800           0
     13575 MEMB     118      OSM      C13F     CTL2    -0.180000       12.0110           0
     13576 MEMB     118      OSM      H13F     HAL2     0.900000E-01   1.00800           0
     13577 MEMB     118      OSM      H13G     HAL2     0.900000E-01   1.00800           0
     13578 MEMB     118      OSM      C14F     CTL2    -0.180000       12.0110           0
     13579 MEMB     118      OSM      H14F     HAL2     0.900000E-01   1.00800           0
     13580 MEMB     118      OSM      H14G     HAL2     0.900000E-01   1.00800           0
     13581 MEMB     118      OSM      C15F     CTL2    -0.180000       12.0110           0
     13582 MEMB     118      OSM      H15F     HAL2     0.900000E-01   1.00800           0
     13583 MEMB     118      OSM      H15G     HAL2     0.900000E-01   1.00800           0
     13584 MEMB     118      OSM      C16F     CTL2    -0.180000       12.0110           0
     13585 MEMB     118      OSM      H16F     HAL2     0.900000E-01   1.00800           0
     13586 MEMB     118      OSM      H16G     HAL2     0.900000E-01   1.00800           0
     13587 MEMB     118      OSM      C17F     CTL2    -0.180000       12.0110           0
     13588 MEMB     118      OSM      H17F     HAL2     0.900000E-01   1.00800           0
     13589 MEMB     118      OSM      H17G     HAL2     0.900000E-01   1.00800           0
     13590 MEMB     118      OSM      C18F     CTL3    -0.270000       12.0110           0
     13591 MEMB     118      OSM      H18F     HAL3     0.900000E-01   1.00800           0
     13592 MEMB     118      OSM      H18G     HAL3     0.900000E-01   1.00800           0
     13593 MEMB     118      OSM      H18H     HAL3     0.900000E-01   1.00800           0
     13594 MEMB     121      OSM      N        NTL     -0.600000       14.0070           0
     13595 MEMB     121      OSM      C15      CTL5    -0.350000       12.0110           0
     13596 MEMB     121      OSM      H15A     HL       0.250000       1.00800           0
     13597 MEMB     121      OSM      H15B     HL       0.250000       1.00800           0
     13598 MEMB     121      OSM      H15C     HL       0.250000       1.00800           0
     13599 MEMB     121      OSM      C14      CTL5    -0.350000       12.0110           0
     13600 MEMB     121      OSM      H14A     HL       0.250000       1.00800           0
     13601 MEMB     121      OSM      H14B     HL       0.250000       1.00800           0
     13602 MEMB     121      OSM      H14C     HL       0.250000       1.00800           0
     13603 MEMB     121      OSM      C13      CTL5    -0.350000       12.0110           0
     13604 MEMB     121      OSM      H13A     HL       0.250000       1.00800           0
     13605 MEMB     121      OSM      H13B     HL       0.250000       1.00800           0
     13606 MEMB     121      OSM      H13C     HL       0.250000       1.00800           0
     13607 MEMB     121      OSM      C12      CTL2    -0.100000       12.0110           0
     13608 MEMB     121      OSM      H12A     HL       0.250000       1.00800           0
     13609 MEMB     121      OSM      H12B     HL       0.250000       1.00800           0
     13610 MEMB     121      OSM      C11      CTL2    -0.800000E-01   12.0110           0
     13611 MEMB     121      OSM      H11A     HAL2     0.900000E-01   1.00800           0
     13612 MEMB     121      OSM      H11B     HAL2     0.900000E-01   1.00800           0
     13613 MEMB     121      OSM      P        PL       1.500000       30.9740           0
     13614 MEMB     121      OSM      O13      O2L     -0.780000       15.9994           0
     13615 MEMB     121      OSM      O14      O2L     -0.780000       15.9994           0
     13616 MEMB     121      OSM      O11      OSLP    -0.570000       15.9994           0
     13617 MEMB     121      OSM      O12      OSLP    -0.570000       15.9994           0
     13618 MEMB     121      OSM      C1S      CTL2    -0.800000E-01   12.0110           0
     13619 MEMB     121      OSM      H1S      HAL2     0.900000E-01   1.00800           0
     13620 MEMB     121      OSM      H1T      HAL2     0.900000E-01   1.00800           0
     13621 MEMB     121      OSM      NF       NHL     -0.700000       14.0070           0
     13622 MEMB     121      OSM      HNF      H        0.350000       1.00800           0
     13623 MEMB     121      OSM      C2S      CTL1     0.300000       12.0110           0
     13624 MEMB     121      OSM      H2S      HAL1     0.500000E-01   1.00800           0
     13625 MEMB     121      OSM      C3S      CTO1     0.500000       12.0110           0
     13626 MEMB     121      OSM      H3S      HAL1    -0.110000       1.00800           0
     13627 MEMB     121      OSM      O3       OHL     -0.690000       15.9994           0
     13628 MEMB     121      OSM      HO3      HOL      0.300000       1.00800           0
     13629 MEMB     121      OSM      C4S      CEL3    -0.150000       12.0110           0
     13630 MEMB     121      OSM      H4S      HEL1     0.150000       1.00800           0
     13631 MEMB     121      OSM      C5S      CEL3    -0.150000       12.0110           0
     13632 MEMB     121      OSM      H5S      HEL1     0.150000       1.00800           0
     13633 MEMB     121      OSM      C6S      CTL2    -0.180000       12.0110           0
     13634 MEMB     121      OSM      H6S      HAL2     0.900000E-01   1.00800           0
     13635 MEMB     121      OSM      H6T      HAL2     0.900000E-01   1.00800           0
     13636 MEMB     121      OSM      C7S      CTL2    -0.180000       12.0110           0
     13637 MEMB     121      OSM      H7S      HAL2     0.900000E-01   1.00800           0
     13638 MEMB     121      OSM      H7T      HAL2     0.900000E-01   1.00800           0
     13639 MEMB     121      OSM      C8S      CTL2    -0.180000       12.0110           0
     13640 MEMB     121      OSM      H8S      HAL2     0.900000E-01   1.00800           0
     13641 MEMB     121      OSM      H8T      HAL2     0.900000E-01   1.00800           0
     13642 MEMB     121      OSM      C9S      CTL2    -0.180000       12.0110           0
     13643 MEMB     121      OSM      H9S      HAL2     0.900000E-01   1.00800           0
     13644 MEMB     121      OSM      H9T      HAL2     0.900000E-01   1.00800           0
     13645 MEMB     121      OSM      C10S     CTL2    -0.180000       12.0110           0
     13646 MEMB     121      OSM      H10S     HAL2     0.900000E-01   1.00800           0
     13647 MEMB     121      OSM      H10T     HAL2     0.900000E-01   1.00800           0
     13648 MEMB     121      OSM      C11S     CTL2    -0.180000       12.0110           0
     13649 MEMB     121      OSM      H11S     HAL2     0.900000E-01   1.00800           0
     13650 MEMB     121      OSM      H11T     HAL2     0.900000E-01   1.00800           0
     13651 MEMB     121      OSM      C12S     CTL2    -0.180000       12.0110           0
     13652 MEMB     121      OSM      H12S     HAL2     0.900000E-01   1.00800           0
     13653 MEMB     121      OSM      H12T     HAL2     0.900000E-01   1.00800           0
     13654 MEMB     121      OSM      C13S     CTL2    -0.180000       12.0110           0
     13655 MEMB     121      OSM      H13S     HAL2     0.900000E-01   1.00800           0
     13656 MEMB     121      OSM      H13T     HAL2     0.900000E-01   1.00800           0
     13657 MEMB     121      OSM      C14S     CTL2    -0.180000       12.0110           0
     13658 MEMB     121      OSM      H14S     HAL2     0.900000E-01   1.00800           0
     13659 MEMB     121      OSM      H14T     HAL2     0.900000E-01   1.00800           0
     13660 MEMB     121      OSM      C15S     CTL2    -0.180000       12.0110           0
     13661 MEMB     121      OSM      H15S     HAL2     0.900000E-01   1.00800           0
     13662 MEMB     121      OSM      H15T     HAL2     0.900000E-01   1.00800           0
     13663 MEMB     121      OSM      C16S     CTL2    -0.180000       12.0110           0
     13664 MEMB     121      OSM      H16S     HAL2     0.900000E-01   1.00800           0
     13665 MEMB     121      OSM      H16T     HAL2     0.900000E-01   1.00800           0
     13666 MEMB     121      OSM      C17S     CTL2    -0.180000       12.0110           0
     13667 MEMB     121      OSM      H17S     HAL2     0.900000E-01   1.00800           0
     13668 MEMB     121      OSM      H17T     HAL2     0.900000E-01   1.00800           0
     13669 MEMB     121      OSM      C18S     CTL3    -0.270000       12.0110           0
     13670 MEMB     121      OSM      H18S     HAL3     0.900000E-01   1.00800           0
     13671 MEMB     121      OSM      H18T     HAL3     0.900000E-01   1.00800           0
     13672 MEMB     121      OSM      H18U     HAL3     0.900000E-01   1.00800           0
     13673 MEMB     121      OSM      C1F      C        0.550000       12.0110           0
     13674 MEMB     121      OSM      OF       O       -0.600000       15.9994           0
     13675 MEMB     121      OSM      C2F      CTL2    -0.700000E-01   12.0110           0
     13676 MEMB     121      OSM      H2F      HAL2     0.600000E-01   1.00800           0
     13677 MEMB     121      OSM      H2G      HAL2     0.600000E-01   1.00800           0
     13678 MEMB     121      OSM      C3F      CTL2    -0.180000       12.0110           0
     13679 MEMB     121      OSM      H3F      HAL2     0.900000E-01   1.00800           0
     13680 MEMB     121      OSM      H3G      HAL2     0.900000E-01   1.00800           0
     13681 MEMB     121      OSM      C4F      CTL2    -0.180000       12.0110           0
     13682 MEMB     121      OSM      H4F      HAL2     0.900000E-01   1.00800           0
     13683 MEMB     121      OSM      H4G      HAL2     0.900000E-01   1.00800           0
     13684 MEMB     121      OSM      C5F      CTL2    -0.180000       12.0110           0
     13685 MEMB     121      OSM      H5F      HAL2     0.900000E-01   1.00800           0
     13686 MEMB     121      OSM      H5G      HAL2     0.900000E-01   1.00800           0
     13687 MEMB     121      OSM      C6F      CTL2    -0.180000       12.0110           0
     13688 MEMB     121      OSM      H6F      HAL2     0.900000E-01   1.00800           0
     13689 MEMB     121      OSM      H6G      HAL2     0.900000E-01   1.00800           0
     13690 MEMB     121      OSM      C7F      CTL2    -0.180000       12.0110           0
     13691 MEMB     121      OSM      H7F      HAL2     0.900000E-01   1.00800           0
     13692 MEMB     121      OSM      H7G      HAL2     0.900000E-01   1.00800           0
     13693 MEMB     121      OSM      C8F      CTL2    -0.180000       12.0110           0
     13694 MEMB     121      OSM      H8F      HAL2     0.900000E-01   1.00800           0
     13695 MEMB     121      OSM      H8G      HAL2     0.900000E-01   1.00800           0
     13696 MEMB     121      OSM      C9F      CEL1    -0.150000       12.0110           0
     13697 MEMB     121      OSM      H9F      HEL1     0.150000       1.00800           0
     13698 MEMB     121      OSM      C10F     CEL1    -0.150000       12.0110           0
     13699 MEMB     121      OSM      H10F     HEL1     0.150000       1.00800           0
     13700 MEMB     121      OSM      C11F     CTL2    -0.180000       12.0110           0
     13701 MEMB     121      OSM      H11F     HAL2     0.900000E-01   1.00800           0
     13702 MEMB     121      OSM      H11G     HAL2     0.900000E-01   1.00800           0
     13703 MEMB     121      OSM      C12F     CTL2    -0.180000       12.0110           0
     13704 MEMB     121      OSM      H12F     HAL2     0.900000E-01   1.00800           0
     13705 MEMB     121      OSM      H12G     HAL2     0.900000E-01   1.00800           0
     13706 MEMB     121      OSM      C13F     CTL2    -0.180000       12.0110           0
     13707 MEMB     121      OSM      H13F     HAL2     0.900000E-01   1.00800           0
     13708 MEMB     121      OSM      H13G     HAL2     0.900000E-01   1.00800           0
     13709 MEMB     121      OSM      C14F     CTL2    -0.180000       12.0110           0
     13710 MEMB     121      OSM      H14F     HAL2     0.900000E-01   1.00800           0
     13711 MEMB     121      OSM      H14G     HAL2     0.900000E-01   1.00800           0
     13712 MEMB     121      OSM      C15F     CTL2    -0.180000       12.0110           0
     13713 MEMB     121      OSM      H15F     HAL2     0.900000E-01   1.00800           0
     13714 MEMB     121      OSM      H15G     HAL2     0.900000E-01   1.00800           0
     13715 MEMB     121      OSM      C16F     CTL2    -0.180000       12.0110           0
     13716 MEMB     121      OSM      H16F     HAL2     0.900000E-01   1.00800           0
     13717 MEMB     121      OSM      H16G     HAL2     0.900000E-01   1.00800           0
     13718 MEMB     121      OSM      C17F     CTL2    -0.180000       12.0110           0
     13719 MEMB     121      OSM      H17F     HAL2     0.900000E-01   1.00800           0
     13720 MEMB     121      OSM      H17G     HAL2     0.900000E-01   1.00800           0
     13721 MEMB     121      OSM      C18F     CTL3    -0.270000       12.0110           0
     13722 MEMB     121      OSM      H18F     HAL3     0.900000E-01   1.00800           0
     13723 MEMB     121      OSM      H18G     HAL3     0.900000E-01   1.00800           0
     13724 MEMB     121      OSM      H18H     HAL3     0.900000E-01   1.00800           0
     13725 MEMB     122      OSM      N        NTL     -0.600000       14.0070           0
     13726 MEMB     122      OSM      C15      CTL5    -0.350000       12.0110           0
     13727 MEMB     122      OSM      H15A     HL       0.250000       1.00800           0
     13728 MEMB     122      OSM      H15B     HL       0.250000       1.00800           0
     13729 MEMB     122      OSM      H15C     HL       0.250000       1.00800           0
     13730 MEMB     122      OSM      C14      CTL5    -0.350000       12.0110           0
     13731 MEMB     122      OSM      H14A     HL       0.250000       1.00800           0
     13732 MEMB     122      OSM      H14B     HL       0.250000       1.00800           0
     13733 MEMB     122      OSM      H14C     HL       0.250000       1.00800           0
     13734 MEMB     122      OSM      C13      CTL5    -0.350000       12.0110           0
     13735 MEMB     122      OSM      H13A     HL       0.250000       1.00800           0
     13736 MEMB     122      OSM      H13B     HL       0.250000       1.00800           0
     13737 MEMB     122      OSM      H13C     HL       0.250000       1.00800           0
     13738 MEMB     122      OSM      C12      CTL2    -0.100000       12.0110           0
     13739 MEMB     122      OSM      H12A     HL       0.250000       1.00800           0
     13740 MEMB     122      OSM      H12B     HL       0.250000       1.00800           0
     13741 MEMB     122      OSM      C11      CTL2    -0.800000E-01   12.0110           0
     13742 MEMB     122      OSM      H11A     HAL2     0.900000E-01   1.00800           0
     13743 MEMB     122      OSM      H11B     HAL2     0.900000E-01   1.00800           0
     13744 MEMB     122      OSM      P        PL       1.500000       30.9740           0
     13745 MEMB     122      OSM      O13      O2L     -0.780000       15.9994           0
     13746 MEMB     122      OSM      O14      O2L     -0.780000       15.9994           0
     13747 MEMB     122      OSM      O11      OSLP    -0.570000       15.9994           0
     13748 MEMB     122      OSM      O12      OSLP    -0.570000       15.9994           0
     13749 MEMB     122      OSM      C1S      CTL2    -0.800000E-01   12.0110           0
     13750 MEMB     122      OSM      H1S      HAL2     0.900000E-01   1.00800           0
     13751 MEMB     122      OSM      H1T      HAL2     0.900000E-01   1.00800           0
     13752 MEMB     122      OSM      NF       NHL     -0.700000       14.0070           0
     13753 MEMB     122      OSM      HNF      H        0.350000       1.00800           0
     13754 MEMB     122      OSM      C2S      CTL1     0.300000       12.0110           0
     13755 MEMB     122      OSM      H2S      HAL1     0.500000E-01   1.00800           0
     13756 MEMB     122      OSM      C3S      CTO1     0.500000       12.0110           0
     13757 MEMB     122      OSM      H3S      HAL1    -0.110000       1.00800           0
     13758 MEMB     122      OSM      O3       OHL     -0.690000       15.9994           0
     13759 MEMB     122      OSM      HO3      HOL      0.300000       1.00800           0
     13760 MEMB     122      OSM      C4S      CEL3    -0.150000       12.0110           0
     13761 MEMB     122      OSM      H4S      HEL1     0.150000       1.00800           0
     13762 MEMB     122      OSM      C5S      CEL3    -0.150000       12.0110           0
     13763 MEMB     122      OSM      H5S      HEL1     0.150000       1.00800           0
     13764 MEMB     122      OSM      C6S      CTL2    -0.180000       12.0110           0
     13765 MEMB     122      OSM      H6S      HAL2     0.900000E-01   1.00800           0
     13766 MEMB     122      OSM      H6T      HAL2     0.900000E-01   1.00800           0
     13767 MEMB     122      OSM      C7S      CTL2    -0.180000       12.0110           0
     13768 MEMB     122      OSM      H7S      HAL2     0.900000E-01   1.00800           0
     13769 MEMB     122      OSM      H7T      HAL2     0.900000E-01   1.00800           0
     13770 MEMB     122      OSM      C8S      CTL2    -0.180000       12.0110           0
     13771 MEMB     122      OSM      H8S      HAL2     0.900000E-01   1.00800           0
     13772 MEMB     122      OSM      H8T      HAL2     0.900000E-01   1.00800           0
     13773 MEMB     122      OSM      C9S      CTL2    -0.180000       12.0110           0
     13774 MEMB     122      OSM      H9S      HAL2     0.900000E-01   1.00800           0
     13775 MEMB     122      OSM      H9T      HAL2     0.900000E-01   1.00800           0
     13776 MEMB     122      OSM      C10S     CTL2    -0.180000       12.0110           0
     13777 MEMB     122      OSM      H10S     HAL2     0.900000E-01   1.00800           0
     13778 MEMB     122      OSM      H10T     HAL2     0.900000E-01   1.00800           0
     13779 MEMB     122      OSM      C11S     CTL2    -0.180000       12.0110           0
     13780 MEMB     122      OSM      H11S     HAL2     0.900000E-01   1.00800           0
     13781 MEMB     122      OSM      H11T     HAL2     0.900000E-01   1.00800           0
     13782 MEMB     122      OSM      C12S     CTL2    -0.180000       12.0110           0
     13783 MEMB     122      OSM      H12S     HAL2     0.900000E-01   1.00800           0
     13784 MEMB     122      OSM      H12T     HAL2     0.900000E-01   1.00800           0
     13785 MEMB     122      OSM      C13S     CTL2    -0.180000       12.0110           0
     13786 MEMB     122      OSM      H13S     HAL2     0.900000E-01   1.00800           0
     13787 MEMB     122      OSM      H13T     HAL2     0.900000E-01   1.00800           0
     13788 MEMB     122      OSM      C14S     CTL2    -0.180000       12.0110           0
     13789 MEMB     122      OSM      H14S     HAL2     0.900000E-01   1.00800           0
     13790 MEMB     122      OSM      H14T     HAL2     0.900000E-01   1.00800           0
     13791 MEMB     122      OSM      C15S     CTL2    -0.180000       12.0110           0
     13792 MEMB     122      OSM      H15S     HAL2     0.900000E-01   1.00800           0
     13793 MEMB     122      OSM      H15T     HAL2     0.900000E-01   1.00800           0
     13794 MEMB     122      OSM      C16S     CTL2    -0.180000       12.0110           0
     13795 MEMB     122      OSM      H16S     HAL2     0.900000E-01   1.00800           0
     13796 MEMB     122      OSM      H16T     HAL2     0.900000E-01   1.00800           0
     13797 MEMB     122      OSM      C17S     CTL2    -0.180000       12.0110           0
     13798 MEMB     122      OSM      H17S     HAL2     0.900000E-01   1.00800           0
     13799 MEMB     122      OSM      H17T     HAL2     0.900000E-01   1.00800           0
     13800 MEMB     122      OSM      C18S     CTL3    -0.270000       12.0110           0
     13801 MEMB     122      OSM      H18S     HAL3     0.900000E-01   1.00800           0
     13802 MEMB     122      OSM      H18T     HAL3     0.900000E-01   1.00800           0
     13803 MEMB     122      OSM      H18U     HAL3     0.900000E-01   1.00800           0
     13804 MEMB     122      OSM      C1F      C        0.550000       12.0110           0
     13805 MEMB     122      OSM      OF       O       -0.600000       15.9994           0
     13806 MEMB     122      OSM      C2F      CTL2    -0.700000E-01   12.0110           0
     13807 MEMB     122      OSM      H2F      HAL2     0.600000E-01   1.00800           0
     13808 MEMB     122      OSM      H2G      HAL2     0.600000E-01   1.00800           0
     13809 MEMB     122      OSM      C3F      CTL2    -0.180000       12.0110           0
     13810 MEMB     122      OSM      H3F      HAL2     0.900000E-01   1.00800           0
     13811 MEMB     122      OSM      H3G      HAL2     0.900000E-01   1.00800           0
     13812 MEMB     122      OSM      C4F      CTL2    -0.180000       12.0110           0
     13813 MEMB     122      OSM      H4F      HAL2     0.900000E-01   1.00800           0
     13814 MEMB     122      OSM      H4G      HAL2     0.900000E-01   1.00800           0
     13815 MEMB     122      OSM      C5F      CTL2    -0.180000       12.0110           0
     13816 MEMB     122      OSM      H5F      HAL2     0.900000E-01   1.00800           0
     13817 MEMB     122      OSM      H5G      HAL2     0.900000E-01   1.00800           0
     13818 MEMB     122      OSM      C6F      CTL2    -0.180000       12.0110           0
     13819 MEMB     122      OSM      H6F      HAL2     0.900000E-01   1.00800           0
     13820 MEMB     122      OSM      H6G      HAL2     0.900000E-01   1.00800           0
     13821 MEMB     122      OSM      C7F      CTL2    -0.180000       12.0110           0
     13822 MEMB     122      OSM      H7F      HAL2     0.900000E-01   1.00800           0
     13823 MEMB     122      OSM      H7G      HAL2     0.900000E-01   1.00800           0
     13824 MEMB     122      OSM      C8F      CTL2    -0.180000       12.0110           0
     13825 MEMB     122      OSM      H8F      HAL2     0.900000E-01   1.00800           0
     13826 MEMB     122      OSM      H8G      HAL2     0.900000E-01   1.00800           0
     13827 MEMB     122      OSM      C9F      CEL1    -0.150000       12.0110           0
     13828 MEMB     122      OSM      H9F      HEL1     0.150000       1.00800           0
     13829 MEMB     122      OSM      C10F     CEL1    -0.150000       12.0110           0
     13830 MEMB     122      OSM      H10F     HEL1     0.150000       1.00800           0
     13831 MEMB     122      OSM      C11F     CTL2    -0.180000       12.0110           0
     13832 MEMB     122      OSM      H11F     HAL2     0.900000E-01   1.00800           0
     13833 MEMB     122      OSM      H11G     HAL2     0.900000E-01   1.00800           0
     13834 MEMB     122      OSM      C12F     CTL2    -0.180000       12.0110           0
     13835 MEMB     122      OSM      H12F     HAL2     0.900000E-01   1.00800           0
     13836 MEMB     122      OSM      H12G     HAL2     0.900000E-01   1.00800           0
     13837 MEMB     122      OSM      C13F     CTL2    -0.180000       12.0110           0
     13838 MEMB     122      OSM      H13F     HAL2     0.900000E-01   1.00800           0
     13839 MEMB     122      OSM      H13G     HAL2     0.900000E-01   1.00800           0
     13840 MEMB     122      OSM      C14F     CTL2    -0.180000       12.0110           0
     13841 MEMB     122      OSM      H14F     HAL2     0.900000E-01   1.00800           0
     13842 MEMB     122      OSM      H14G     HAL2     0.900000E-01   1.00800           0
     13843 MEMB     122      OSM      C15F     CTL2    -0.180000       12.0110           0
     13844 MEMB     122      OSM      H15F     HAL2     0.900000E-01   1.00800           0
     13845 MEMB     122      OSM      H15G     HAL2     0.900000E-01   1.00800           0
     13846 MEMB     122      OSM      C16F     CTL2    -0.180000       12.0110           0
     13847 MEMB     122      OSM      H16F     HAL2     0.900000E-01   1.00800           0
     13848 MEMB     122      OSM      H16G     HAL2     0.900000E-01   1.00800           0
     13849 MEMB     122      OSM      C17F     CTL2    -0.180000       12.0110           0
     13850 MEMB     122      OSM      H17F     HAL2     0.900000E-01   1.00800           0
     13851 MEMB     122      OSM      H17G     HAL2     0.900000E-01   1.00800           0
     13852 MEMB     122      OSM      C18F     CTL3    -0.270000       12.0110           0
     13853 MEMB     122      OSM      H18F     HAL3     0.900000E-01   1.00800           0
     13854 MEMB     122      OSM      H18G     HAL3     0.900000E-01   1.00800           0
     13855 MEMB     122      OSM      H18H     HAL3     0.900000E-01   1.00800           0
     13856 MEMB     125      OSM      N        NTL     -0.600000       14.0070           0
     13857 MEMB     125      OSM      C15      CTL5    -0.350000       12.0110           0
     13858 MEMB     125      OSM      H15A     HL       0.250000       1.00800           0
     13859 MEMB     125      OSM      H15B     HL       0.250000       1.00800           0
     13860 MEMB     125      OSM      H15C     HL       0.250000       1.00800           0
     13861 MEMB     125      OSM      C14      CTL5    -0.350000       12.0110           0
     13862 MEMB     125      OSM      H14A     HL       0.250000       1.00800           0
     13863 MEMB     125      OSM      H14B     HL       0.250000       1.00800           0
     13864 MEMB     125      OSM      H14C     HL       0.250000       1.00800           0
     13865 MEMB     125      OSM      C13      CTL5    -0.350000       12.0110           0
     13866 MEMB     125      OSM      H13A     HL       0.250000       1.00800           0
     13867 MEMB     125      OSM      H13B     HL       0.250000       1.00800           0
     13868 MEMB     125      OSM      H13C     HL       0.250000       1.00800           0
     13869 MEMB     125      OSM      C12      CTL2    -0.100000       12.0110           0
     13870 MEMB     125      OSM      H12A     HL       0.250000       1.00800           0
     13871 MEMB     125      OSM      H12B     HL       0.250000       1.00800           0
     13872 MEMB     125      OSM      C11      CTL2    -0.800000E-01   12.0110           0
     13873 MEMB     125      OSM      H11A     HAL2     0.900000E-01   1.00800           0
     13874 MEMB     125      OSM      H11B     HAL2     0.900000E-01   1.00800           0
     13875 MEMB     125      OSM      P        PL       1.500000       30.9740           0
     13876 MEMB     125      OSM      O13      O2L     -0.780000       15.9994           0
     13877 MEMB     125      OSM      O14      O2L     -0.780000       15.9994           0
     13878 MEMB     125      OSM      O11      OSLP    -0.570000       15.9994           0
     13879 MEMB     125      OSM      O12      OSLP    -0.570000       15.9994           0
     13880 MEMB     125      OSM      C1S      CTL2    -0.800000E-01   12.0110           0
     13881 MEMB     125      OSM      H1S      HAL2     0.900000E-01   1.00800           0
     13882 MEMB     125      OSM      H1T      HAL2     0.900000E-01   1.00800           0
     13883 MEMB     125      OSM      NF       NHL     -0.700000       14.0070           0
     13884 MEMB     125      OSM      HNF      H        0.350000       1.00800           0
     13885 MEMB     125      OSM      C2S      CTL1     0.300000       12.0110           0
     13886 MEMB     125      OSM      H2S      HAL1     0.500000E-01   1.00800           0
     13887 MEMB     125      OSM      C3S      CTO1     0.500000       12.0110           0
     13888 MEMB     125      OSM      H3S      HAL1    -0.110000       1.00800           0
     13889 MEMB     125      OSM      O3       OHL     -0.690000       15.9994           0
     13890 MEMB     125      OSM      HO3      HOL      0.300000       1.00800           0
     13891 MEMB     125      OSM      C4S      CEL3    -0.150000       12.0110           0
     13892 MEMB     125      OSM      H4S      HEL1     0.150000       1.00800           0
     13893 MEMB     125      OSM      C5S      CEL3    -0.150000       12.0110           0
     13894 MEMB     125      OSM      H5S      HEL1     0.150000       1.00800           0
     13895 MEMB     125      OSM      C6S      CTL2    -0.180000       12.0110           0
     13896 MEMB     125      OSM      H6S      HAL2     0.900000E-01   1.00800           0
     13897 MEMB     125      OSM      H6T      HAL2     0.900000E-01   1.00800           0
     13898 MEMB     125      OSM      C7S      CTL2    -0.180000       12.0110           0
     13899 MEMB     125      OSM      H7S      HAL2     0.900000E-01   1.00800           0
     13900 MEMB     125      OSM      H7T      HAL2     0.900000E-01   1.00800           0
     13901 MEMB     125      OSM      C8S      CTL2    -0.180000       12.0110           0
     13902 MEMB     125      OSM      H8S      HAL2     0.900000E-01   1.00800           0
     13903 MEMB     125      OSM      H8T      HAL2     0.900000E-01   1.00800           0
     13904 MEMB     125      OSM      C9S      CTL2    -0.180000       12.0110           0
     13905 MEMB     125      OSM      H9S      HAL2     0.900000E-01   1.00800           0
     13906 MEMB     125      OSM      H9T      HAL2     0.900000E-01   1.00800           0
     13907 MEMB     125      OSM      C10S     CTL2    -0.180000       12.0110           0
     13908 MEMB     125      OSM      H10S     HAL2     0.900000E-01   1.00800           0
     13909 MEMB     125      OSM      H10T     HAL2     0.900000E-01   1.00800           0
     13910 MEMB     125      OSM      C11S     CTL2    -0.180000       12.0110           0
     13911 MEMB     125      OSM      H11S     HAL2     0.900000E-01   1.00800           0
     13912 MEMB     125      OSM      H11T     HAL2     0.900000E-01   1.00800           0
     13913 MEMB     125      OSM      C12S     CTL2    -0.180000       12.0110           0
     13914 MEMB     125      OSM      H12S     HAL2     0.900000E-01   1.00800           0
     13915 MEMB     125      OSM      H12T     HAL2     0.900000E-01   1.00800           0
     13916 MEMB     125      OSM      C13S     CTL2    -0.180000       12.0110           0
     13917 MEMB     125      OSM      H13S     HAL2     0.900000E-01   1.00800           0
     13918 MEMB     125      OSM      H13T     HAL2     0.900000E-01   1.00800           0
     13919 MEMB     125      OSM      C14S     CTL2    -0.180000       12.0110           0
     13920 MEMB     125      OSM      H14S     HAL2     0.900000E-01   1.00800           0
     13921 MEMB     125      OSM      H14T     HAL2     0.900000E-01   1.00800           0
     13922 MEMB     125      OSM      C15S     CTL2    -0.180000       12.0110           0
     13923 MEMB     125      OSM      H15S     HAL2     0.900000E-01   1.00800           0
     13924 MEMB     125      OSM      H15T     HAL2     0.900000E-01   1.00800           0
     13925 MEMB     125      OSM      C16S     CTL2    -0.180000       12.0110           0
     13926 MEMB     125      OSM      H16S     HAL2     0.900000E-01   1.00800           0
     13927 MEMB     125      OSM      H16T     HAL2     0.900000E-01   1.00800           0
     13928 MEMB     125      OSM      C17S     CTL2    -0.180000       12.0110           0
     13929 MEMB     125      OSM      H17S     HAL2     0.900000E-01   1.00800           0
     13930 MEMB     125      OSM      H17T     HAL2     0.900000E-01   1.00800           0
     13931 MEMB     125      OSM      C18S     CTL3    -0.270000       12.0110           0
     13932 MEMB     125      OSM      H18S     HAL3     0.900000E-01   1.00800           0
     13933 MEMB     125      OSM      H18T     HAL3     0.900000E-01   1.00800           0
     13934 MEMB     125      OSM      H18U     HAL3     0.900000E-01   1.00800           0
     13935 MEMB     125      OSM      C1F      C        0.550000       12.0110           0
     13936 MEMB     125      OSM      OF       O       -0.600000       15.9994           0
     13937 MEMB     125      OSM      C2F      CTL2    -0.700000E-01   12.0110           0
     13938 MEMB     125      OSM      H2F      HAL2     0.600000E-01   1.00800           0
     13939 MEMB     125      OSM      H2G      HAL2     0.600000E-01   1.00800           0
     13940 MEMB     125      OSM      C3F      CTL2    -0.180000       12.0110           0
     13941 MEMB     125      OSM      H3F      HAL2     0.900000E-01   1.00800           0
     13942 MEMB     125      OSM      H3G      HAL2     0.900000E-01   1.00800           0
     13943 MEMB     125      OSM      C4F      CTL2    -0.180000       12.0110           0
     13944 MEMB     125      OSM      H4F      HAL2     0.900000E-01   1.00800           0
     13945 MEMB     125      OSM      H4G      HAL2     0.900000E-01   1.00800           0
     13946 MEMB     125      OSM      C5F      CTL2    -0.180000       12.0110           0
     13947 MEMB     125      OSM      H5F      HAL2     0.900000E-01   1.00800           0
     13948 MEMB     125      OSM      H5G      HAL2     0.900000E-01   1.00800           0
     13949 MEMB     125      OSM      C6F      CTL2    -0.180000       12.0110           0
     13950 MEMB     125      OSM      H6F      HAL2     0.900000E-01   1.00800           0
     13951 MEMB     125      OSM      H6G      HAL2     0.900000E-01   1.00800           0
     13952 MEMB     125      OSM      C7F      CTL2    -0.180000       12.0110           0
     13953 MEMB     125      OSM      H7F      HAL2     0.900000E-01   1.00800           0
     13954 MEMB     125      OSM      H7G      HAL2     0.900000E-01   1.00800           0
     13955 MEMB     125      OSM      C8F      CTL2    -0.180000       12.0110           0
     13956 MEMB     125      OSM      H8F      HAL2     0.900000E-01   1.00800           0
     13957 MEMB     125      OSM      H8G      HAL2     0.900000E-01   1.00800           0
     13958 MEMB     125      OSM      C9F      CEL1    -0.150000       12.0110           0
     13959 MEMB     125      OSM      H9F      HEL1     0.150000       1.00800           0
     13960 MEMB     125      OSM      C10F     CEL1    -0.150000       12.0110           0
     13961 MEMB     125      OSM      H10F     HEL1     0.150000       1.00800           0
     13962 MEMB     125      OSM      C11F     CTL2    -0.180000       12.0110           0
     13963 MEMB     125      OSM      H11F     HAL2     0.900000E-01   1.00800           0
     13964 MEMB     125      OSM      H11G     HAL2     0.900000E-01   1.00800           0
     13965 MEMB     125      OSM      C12F     CTL2    -0.180000       12.0110           0
     13966 MEMB     125      OSM      H12F     HAL2     0.900000E-01   1.00800           0
     13967 MEMB     125      OSM      H12G     HAL2     0.900000E-01   1.00800           0
     13968 MEMB     125      OSM      C13F     CTL2    -0.180000       12.0110           0
     13969 MEMB     125      OSM      H13F     HAL2     0.900000E-01   1.00800           0
     13970 MEMB     125      OSM      H13G     HAL2     0.900000E-01   1.00800           0
     13971 MEMB     125      OSM      C14F     CTL2    -0.180000       12.0110           0
     13972 MEMB     125      OSM      H14F     HAL2     0.900000E-01   1.00800           0
     13973 MEMB     125      OSM      H14G     HAL2     0.900000E-01   1.00800           0
     13974 MEMB     125      OSM      C15F     CTL2    -0.180000       12.0110           0
     13975 MEMB     125      OSM      H15F     HAL2     0.900000E-01   1.00800           0
     13976 MEMB     125      OSM      H15G     HAL2     0.900000E-01   1.00800           0
     13977 MEMB     125      OSM      C16F     CTL2    -0.180000       12.0110           0
     13978 MEMB     125      OSM      H16F     HAL2     0.900000E-01   1.00800           0
     13979 MEMB     125      OSM      H16G     HAL2     0.900000E-01   1.00800           0
     13980 MEMB     125      OSM      C17F     CTL2    -0.180000       12.0110           0
     13981 MEMB     125      OSM      H17F     HAL2     0.900000E-01   1.00800           0
     13982 MEMB     125      OSM      H17G     HAL2     0.900000E-01   1.00800           0
     13983 MEMB     125      OSM      C18F     CTL3    -0.270000       12.0110           0
     13984 MEMB     125      OSM      H18F     HAL3     0.900000E-01   1.00800           0
     13985 MEMB     125      OSM      H18G     HAL3     0.900000E-01   1.00800           0
     13986 MEMB     125      OSM      H18H     HAL3     0.900000E-01   1.00800           0
     13987 MEMB     130      OSM      N        NTL     -0.600000       14.0070           0
     13988 MEMB     130      OSM      C15      CTL5    -0.350000       12.0110           0
     13989 MEMB     130      OSM      H15A     HL       0.250000       1.00800           0
     13990 MEMB     130      OSM      H15B     HL       0.250000       1.00800           0
     13991 MEMB     130      OSM      H15C     HL       0.250000       1.00800           0
     13992 MEMB     130      OSM      C14      CTL5    -0.350000       12.0110           0
     13993 MEMB     130      OSM      H14A     HL       0.250000       1.00800           0
     13994 MEMB     130      OSM      H14B     HL       0.250000       1.00800           0
     13995 MEMB     130      OSM      H14C     HL       0.250000       1.00800           0
     13996 MEMB     130      OSM      C13      CTL5    -0.350000       12.0110           0
     13997 MEMB     130      OSM      H13A     HL       0.250000       1.00800           0
     13998 MEMB     130      OSM      H13B     HL       0.250000       1.00800           0
     13999 MEMB     130      OSM      H13C     HL       0.250000       1.00800           0
     14000 MEMB     130      OSM      C12      CTL2    -0.100000       12.0110           0
     14001 MEMB     130      OSM      H12A     HL       0.250000       1.00800           0
     14002 MEMB     130      OSM      H12B     HL       0.250000       1.00800           0
     14003 MEMB     130      OSM      C11      CTL2    -0.800000E-01   12.0110           0
     14004 MEMB     130      OSM      H11A     HAL2     0.900000E-01   1.00800           0
     14005 MEMB     130      OSM      H11B     HAL2     0.900000E-01   1.00800           0
     14006 MEMB     130      OSM      P        PL       1.500000       30.9740           0
     14007 MEMB     130      OSM      O13      O2L     -0.780000       15.9994           0
     14008 MEMB     130      OSM      O14      O2L     -0.780000       15.9994           0
     14009 MEMB     130      OSM      O11      OSLP    -0.570000       15.9994           0
     14010 MEMB     130      OSM      O12      OSLP    -0.570000       15.9994           0
     14011 MEMB     130      OSM      C1S      CTL2    -0.800000E-01   12.0110           0
     14012 MEMB     130      OSM      H1S      HAL2     0.900000E-01   1.00800           0
     14013 MEMB     130      OSM      H1T      HAL2     0.900000E-01   1.00800           0
     14014 MEMB     130      OSM      NF       NHL     -0.700000       14.0070           0
     14015 MEMB     130      OSM      HNF      H        0.350000       1.00800           0
     14016 MEMB     130      OSM      C2S      CTL1     0.300000       12.0110           0
     14017 MEMB     130      OSM      H2S      HAL1     0.500000E-01   1.00800           0
     14018 MEMB     130      OSM      C3S      CTO1     0.500000       12.0110           0
     14019 MEMB     130      OSM      H3S      HAL1    -0.110000       1.00800           0
     14020 MEMB     130      OSM      O3       OHL     -0.690000       15.9994           0
     14021 MEMB     130      OSM      HO3      HOL      0.300000       1.00800           0
     14022 MEMB     130      OSM      C4S      CEL3    -0.150000       12.0110           0
     14023 MEMB     130      OSM      H4S      HEL1     0.150000       1.00800           0
     14024 MEMB     130      OSM      C5S      CEL3    -0.150000       12.0110           0
     14025 MEMB     130      OSM      H5S      HEL1     0.150000       1.00800           0
     14026 MEMB     130      OSM      C6S      CTL2    -0.180000       12.0110           0
     14027 MEMB     130      OSM      H6S      HAL2     0.900000E-01   1.00800           0
     14028 MEMB     130      OSM      H6T      HAL2     0.900000E-01   1.00800           0
     14029 MEMB     130      OSM      C7S      CTL2    -0.180000       12.0110           0
     14030 MEMB     130      OSM      H7S      HAL2     0.900000E-01   1.00800           0
     14031 MEMB     130      OSM      H7T      HAL2     0.900000E-01   1.00800           0
     14032 MEMB     130      OSM      C8S      CTL2    -0.180000       12.0110           0
     14033 MEMB     130      OSM      H8S      HAL2     0.900000E-01   1.00800           0
     14034 MEMB     130      OSM      H8T      HAL2     0.900000E-01   1.00800           0
     14035 MEMB     130      OSM      C9S      CTL2    -0.180000       12.0110           0
     14036 MEMB     130      OSM      H9S      HAL2     0.900000E-01   1.00800           0
     14037 MEMB     130      OSM      H9T      HAL2     0.900000E-01   1.00800           0
     14038 MEMB     130      OSM      C10S     CTL2    -0.180000       12.0110           0
     14039 MEMB     130      OSM      H10S     HAL2     0.900000E-01   1.00800           0
     14040 MEMB     130      OSM      H10T     HAL2     0.900000E-01   1.00800           0
     14041 MEMB     130      OSM      C11S     CTL2    -0.180000       12.0110           0
     14042 MEMB     130      OSM      H11S     HAL2     0.900000E-01   1.00800           0
     14043 MEMB     130      OSM      H11T     HAL2     0.900000E-01   1.00800           0
     14044 MEMB     130      OSM      C12S     CTL2    -0.180000       12.0110           0
     14045 MEMB     130      OSM      H12S     HAL2     0.900000E-01   1.00800           0
     14046 MEMB     130      OSM      H12T     HAL2     0.900000E-01   1.00800           0
     14047 MEMB     130      OSM      C13S     CTL2    -0.180000       12.0110           0
     14048 MEMB     130      OSM      H13S     HAL2     0.900000E-01   1.00800           0
     14049 MEMB     130      OSM      H13T     HAL2     0.900000E-01   1.00800           0
     14050 MEMB     130      OSM      C14S     CTL2    -0.180000       12.0110           0
     14051 MEMB     130      OSM      H14S     HAL2     0.900000E-01   1.00800           0
     14052 MEMB     130      OSM      H14T     HAL2     0.900000E-01   1.00800           0
     14053 MEMB     130      OSM      C15S     CTL2    -0.180000       12.0110           0
     14054 MEMB     130      OSM      H15S     HAL2     0.900000E-01   1.00800           0
     14055 MEMB     130      OSM      H15T     HAL2     0.900000E-01   1.00800           0
     14056 MEMB     130      OSM      C16S     CTL2    -0.180000       12.0110           0
     14057 MEMB     130      OSM      H16S     HAL2     0.900000E-01   1.00800           0
     14058 MEMB     130      OSM      H16T     HAL2     0.900000E-01   1.00800           0
     14059 MEMB     130      OSM      C17S     CTL2    -0.180000       12.0110           0
     14060 MEMB     130      OSM      H17S     HAL2     0.900000E-01   1.00800           0
     14061 MEMB     130      OSM      H17T     HAL2     0.900000E-01   1.00800           0
     14062 MEMB     130      OSM      C18S     CTL3    -0.270000       12.0110           0
     14063 MEMB     130      OSM      H18S     HAL3     0.900000E-01   1.00800           0
     14064 MEMB     130      OSM      H18T     HAL3     0.900000E-01   1.00800           0
     14065 MEMB     130      OSM      H18U     HAL3     0.900000E-01   1.00800           0
     14066 MEMB     130      OSM      C1F      C        0.550000       12.0110           0
     14067 MEMB     130      OSM      OF       O       -0.600000       15.9994           0
     14068 MEMB     130      OSM      C2F      CTL2    -0.700000E-01   12.0110           0
     14069 MEMB     130      OSM      H2F      HAL2     0.600000E-01   1.00800           0
     14070 MEMB     130      OSM      H2G      HAL2     0.600000E-01   1.00800           0
     14071 MEMB     130      OSM      C3F      CTL2    -0.180000       12.0110           0
     14072 MEMB     130      OSM      H3F      HAL2     0.900000E-01   1.00800           0
     14073 MEMB     130      OSM      H3G      HAL2     0.900000E-01   1.00800           0
     14074 MEMB     130      OSM      C4F      CTL2    -0.180000       12.0110           0
     14075 MEMB     130      OSM      H4F      HAL2     0.900000E-01   1.00800           0
     14076 MEMB     130      OSM      H4G      HAL2     0.900000E-01   1.00800           0
     14077 MEMB     130      OSM      C5F      CTL2    -0.180000       12.0110           0
     14078 MEMB     130      OSM      H5F      HAL2     0.900000E-01   1.00800           0
     14079 MEMB     130      OSM      H5G      HAL2     0.900000E-01   1.00800           0
     14080 MEMB     130      OSM      C6F      CTL2    -0.180000       12.0110           0
     14081 MEMB     130      OSM      H6F      HAL2     0.900000E-01   1.00800           0
     14082 MEMB     130      OSM      H6G      HAL2     0.900000E-01   1.00800           0
     14083 MEMB     130      OSM      C7F      CTL2    -0.180000       12.0110           0
     14084 MEMB     130      OSM      H7F      HAL2     0.900000E-01   1.00800           0
     14085 MEMB     130      OSM      H7G      HAL2     0.900000E-01   1.00800           0
     14086 MEMB     130      OSM      C8F      CTL2    -0.180000       12.0110           0
     14087 MEMB     130      OSM      H8F      HAL2     0.900000E-01   1.00800           0
     14088 MEMB     130      OSM      H8G      HAL2     0.900000E-01   1.00800           0
     14089 MEMB     130      OSM      C9F      CEL1    -0.150000       12.0110           0
     14090 MEMB     130      OSM      H9F      HEL1     0.150000       1.00800           0
     14091 MEMB     130      OSM      C10F     CEL1    -0.150000       12.0110           0
     14092 MEMB     130      OSM      H10F     HEL1     0.150000       1.00800           0
     14093 MEMB     130      OSM      C11F     CTL2    -0.180000       12.0110           0
     14094 MEMB     130      OSM      H11F     HAL2     0.900000E-01   1.00800           0
     14095 MEMB     130      OSM      H11G     HAL2     0.900000E-01   1.00800           0
     14096 MEMB     130      OSM      C12F     CTL2    -0.180000       12.0110           0
     14097 MEMB     130      OSM      H12F     HAL2     0.900000E-01   1.00800           0
     14098 MEMB     130      OSM      H12G     HAL2     0.900000E-01   1.00800           0
     14099 MEMB     130      OSM      C13F     CTL2    -0.180000       12.0110           0
     14100 MEMB     130      OSM      H13F     HAL2     0.900000E-01   1.00800           0
     14101 MEMB     130      OSM      H13G     HAL2     0.900000E-01   1.00800           0
     14102 MEMB     130      OSM      C14F     CTL2    -0.180000       12.0110           0
     14103 MEMB     130      OSM      H14F     HAL2     0.900000E-01   1.00800           0
     14104 MEMB     130      OSM      H14G     HAL2     0.900000E-01   1.00800           0
     14105 MEMB     130      OSM      C15F     CTL2    -0.180000       12.0110           0
     14106 MEMB     130      OSM      H15F     HAL2     0.900000E-01   1.00800           0
     14107 MEMB     130      OSM      H15G     HAL2     0.900000E-01   1.00800           0
     14108 MEMB     130      OSM      C16F     CTL2    -0.180000       12.0110           0
     14109 MEMB     130      OSM      H16F     HAL2     0.900000E-01   1.00800           0
     14110 MEMB     130      OSM      H16G     HAL2     0.900000E-01   1.00800           0
     14111 MEMB     130      OSM      C17F     CTL2    -0.180000       12.0110           0
     14112 MEMB     130      OSM      H17F     HAL2     0.900000E-01   1.00800           0
     14113 MEMB     130      OSM      H17G     HAL2     0.900000E-01   1.00800           0
     14114 MEMB     130      OSM      C18F     CTL3    -0.270000       12.0110           0
     14115 MEMB     130      OSM      H18F     HAL3     0.900000E-01   1.00800           0
     14116 MEMB     130      OSM      H18G     HAL3     0.900000E-01   1.00800           0
     14117 MEMB     130      OSM      H18H     HAL3     0.900000E-01   1.00800           0
     14118 MEMB     133      OSM      N        NTL     -0.600000       14.0070           0
     14119 MEMB     133      OSM      C15      CTL5    -0.350000       12.0110           0
     14120 MEMB     133      OSM      H15A     HL       0.250000       1.00800           0
     14121 MEMB     133      OSM      H15B     HL       0.250000       1.00800           0
     14122 MEMB     133      OSM      H15C     HL       0.250000       1.00800           0
     14123 MEMB     133      OSM      C14      CTL5    -0.350000       12.0110           0
     14124 MEMB     133      OSM      H14A     HL       0.250000       1.00800           0
     14125 MEMB     133      OSM      H14B     HL       0.250000       1.00800           0
     14126 MEMB     133      OSM      H14C     HL       0.250000       1.00800           0
     14127 MEMB     133      OSM      C13      CTL5    -0.350000       12.0110           0
     14128 MEMB     133      OSM      H13A     HL       0.250000       1.00800           0
     14129 MEMB     133      OSM      H13B     HL       0.250000       1.00800           0
     14130 MEMB     133      OSM      H13C     HL       0.250000       1.00800           0
     14131 MEMB     133      OSM      C12      CTL2    -0.100000       12.0110           0
     14132 MEMB     133      OSM      H12A     HL       0.250000       1.00800           0
     14133 MEMB     133      OSM      H12B     HL       0.250000       1.00800           0
     14134 MEMB     133      OSM      C11      CTL2    -0.800000E-01   12.0110           0
     14135 MEMB     133      OSM      H11A     HAL2     0.900000E-01   1.00800           0
     14136 MEMB     133      OSM      H11B     HAL2     0.900000E-01   1.00800           0
     14137 MEMB     133      OSM      P        PL       1.500000       30.9740           0
     14138 MEMB     133      OSM      O13      O2L     -0.780000       15.9994           0
     14139 MEMB     133      OSM      O14      O2L     -0.780000       15.9994           0
     14140 MEMB     133      OSM      O11      OSLP    -0.570000       15.9994           0
     14141 MEMB     133      OSM      O12      OSLP    -0.570000       15.9994           0
     14142 MEMB     133      OSM      C1S      CTL2    -0.800000E-01   12.0110           0
     14143 MEMB     133      OSM      H1S      HAL2     0.900000E-01   1.00800           0
     14144 MEMB     133      OSM      H1T      HAL2     0.900000E-01   1.00800           0
     14145 MEMB     133      OSM      NF       NHL     -0.700000       14.0070           0
     14146 MEMB     133      OSM      HNF      H        0.350000       1.00800           0
     14147 MEMB     133      OSM      C2S      CTL1     0.300000       12.0110           0
     14148 MEMB     133      OSM      H2S      HAL1     0.500000E-01   1.00800           0
     14149 MEMB     133      OSM      C3S      CTO1     0.500000       12.0110           0
     14150 MEMB     133      OSM      H3S      HAL1    -0.110000       1.00800           0
     14151 MEMB     133      OSM      O3       OHL     -0.690000       15.9994           0
     14152 MEMB     133      OSM      HO3      HOL      0.300000       1.00800           0
     14153 MEMB     133      OSM      C4S      CEL3    -0.150000       12.0110           0
     14154 MEMB     133      OSM      H4S      HEL1     0.150000       1.00800           0
     14155 MEMB     133      OSM      C5S      CEL3    -0.150000       12.0110           0
     14156 MEMB     133      OSM      H5S      HEL1     0.150000       1.00800           0
     14157 MEMB     133      OSM      C6S      CTL2    -0.180000       12.0110           0
     14158 MEMB     133      OSM      H6S      HAL2     0.900000E-01   1.00800           0
     14159 MEMB     133      OSM      H6T      HAL2     0.900000E-01   1.00800           0
     14160 MEMB     133      OSM      C7S      CTL2    -0.180000       12.0110           0
     14161 MEMB     133      OSM      H7S      HAL2     0.900000E-01   1.00800           0
     14162 MEMB     133      OSM      H7T      HAL2     0.900000E-01   1.00800           0
     14163 MEMB     133      OSM      C8S      CTL2    -0.180000       12.0110           0
     14164 MEMB     133      OSM      H8S      HAL2     0.900000E-01   1.00800           0
     14165 MEMB     133      OSM      H8T      HAL2     0.900000E-01   1.00800           0
     14166 MEMB     133      OSM      C9S      CTL2    -0.180000       12.0110           0
     14167 MEMB     133      OSM      H9S      HAL2     0.900000E-01   1.00800           0
     14168 MEMB     133      OSM      H9T      HAL2     0.900000E-01   1.00800           0
     14169 MEMB     133      OSM      C10S     CTL2    -0.180000       12.0110           0
     14170 MEMB     133      OSM      H10S     HAL2     0.900000E-01   1.00800           0
     14171 MEMB     133      OSM      H10T     HAL2     0.900000E-01   1.00800           0
     14172 MEMB     133      OSM      C11S     CTL2    -0.180000       12.0110           0
     14173 MEMB     133      OSM      H11S     HAL2     0.900000E-01   1.00800           0
     14174 MEMB     133      OSM      H11T     HAL2     0.900000E-01   1.00800           0
     14175 MEMB     133      OSM      C12S     CTL2    -0.180000       12.0110           0
     14176 MEMB     133      OSM      H12S     HAL2     0.900000E-01   1.00800           0
     14177 MEMB     133      OSM      H12T     HAL2     0.900000E-01   1.00800           0
     14178 MEMB     133      OSM      C13S     CTL2    -0.180000       12.0110           0
     14179 MEMB     133      OSM      H13S     HAL2     0.900000E-01   1.00800           0
     14180 MEMB     133      OSM      H13T     HAL2     0.900000E-01   1.00800           0
     14181 MEMB     133      OSM      C14S     CTL2    -0.180000       12.0110           0
     14182 MEMB     133      OSM      H14S     HAL2     0.900000E-01   1.00800           0
     14183 MEMB     133      OSM      H14T     HAL2     0.900000E-01   1.00800           0
     14184 MEMB     133      OSM      C15S     CTL2    -0.180000       12.0110           0
     14185 MEMB     133      OSM      H15S     HAL2     0.900000E-01   1.00800           0
     14186 MEMB     133      OSM      H15T     HAL2     0.900000E-01   1.00800           0
     14187 MEMB     133      OSM      C16S     CTL2    -0.180000       12.0110           0
     14188 MEMB     133      OSM      H16S     HAL2     0.900000E-01   1.00800           0
     14189 MEMB     133      OSM      H16T     HAL2     0.900000E-01   1.00800           0
     14190 MEMB     133      OSM      C17S     CTL2    -0.180000       12.0110           0
     14191 MEMB     133      OSM      H17S     HAL2     0.900000E-01   1.00800           0
     14192 MEMB     133      OSM      H17T     HAL2     0.900000E-01   1.00800           0
     14193 MEMB     133      OSM      C18S     CTL3    -0.270000       12.0110           0
     14194 MEMB     133      OSM      H18S     HAL3     0.900000E-01   1.00800           0
     14195 MEMB     133      OSM      H18T     HAL3     0.900000E-01   1.00800           0
     14196 MEMB     133      OSM      H18U     HAL3     0.900000E-01   1.00800           0
     14197 MEMB     133      OSM      C1F      C        0.550000       12.0110           0
     14198 MEMB     133      OSM      OF       O       -0.600000       15.9994           0
     14199 MEMB     133      OSM      C2F      CTL2    -0.700000E-01   12.0110           0
     14200 MEMB     133      OSM      H2F      HAL2     0.600000E-01   1.00800           0
     14201 MEMB     133      OSM      H2G      HAL2     0.600000E-01   1.00800           0
     14202 MEMB     133      OSM      C3F      CTL2    -0.180000       12.0110           0
     14203 MEMB     133      OSM      H3F      HAL2     0.900000E-01   1.00800           0
     14204 MEMB     133      OSM      H3G      HAL2     0.900000E-01   1.00800           0
     14205 MEMB     133      OSM      C4F      CTL2    -0.180000       12.0110           0
     14206 MEMB     133      OSM      H4F      HAL2     0.900000E-01   1.00800           0
     14207 MEMB     133      OSM      H4G      HAL2     0.900000E-01   1.00800           0
     14208 MEMB     133      OSM      C5F      CTL2    -0.180000       12.0110           0
     14209 MEMB     133      OSM      H5F      HAL2     0.900000E-01   1.00800           0
     14210 MEMB     133      OSM      H5G      HAL2     0.900000E-01   1.00800           0
     14211 MEMB     133      OSM      C6F      CTL2    -0.180000       12.0110           0
     14212 MEMB     133      OSM      H6F      HAL2     0.900000E-01   1.00800           0
     14213 MEMB     133      OSM      H6G      HAL2     0.900000E-01   1.00800           0
     14214 MEMB     133      OSM      C7F      CTL2    -0.180000       12.0110           0
     14215 MEMB     133      OSM      H7F      HAL2     0.900000E-01   1.00800           0
     14216 MEMB     133      OSM      H7G      HAL2     0.900000E-01   1.00800           0
     14217 MEMB     133      OSM      C8F      CTL2    -0.180000       12.0110           0
     14218 MEMB     133      OSM      H8F      HAL2     0.900000E-01   1.00800           0
     14219 MEMB     133      OSM      H8G      HAL2     0.900000E-01   1.00800           0
     14220 MEMB     133      OSM      C9F      CEL1    -0.150000       12.0110           0
     14221 MEMB     133      OSM      H9F      HEL1     0.150000       1.00800           0
     14222 MEMB     133      OSM      C10F     CEL1    -0.150000       12.0110           0
     14223 MEMB     133      OSM      H10F     HEL1     0.150000       1.00800           0
     14224 MEMB     133      OSM      C11F     CTL2    -0.180000       12.0110           0
     14225 MEMB     133      OSM      H11F     HAL2     0.900000E-01   1.00800           0
     14226 MEMB     133      OSM      H11G     HAL2     0.900000E-01   1.00800           0
     14227 MEMB     133      OSM      C12F     CTL2    -0.180000       12.0110           0
     14228 MEMB     133      OSM      H12F     HAL2     0.900000E-01   1.00800           0
     14229 MEMB     133      OSM      H12G     HAL2     0.900000E-01   1.00800           0
     14230 MEMB     133      OSM      C13F     CTL2    -0.180000       12.0110           0
     14231 MEMB     133      OSM      H13F     HAL2     0.900000E-01   1.00800           0
     14232 MEMB     133      OSM      H13G     HAL2     0.900000E-01   1.00800           0
     14233 MEMB     133      OSM      C14F     CTL2    -0.180000       12.0110           0
     14234 MEMB     133      OSM      H14F     HAL2     0.900000E-01   1.00800           0
     14235 MEMB     133      OSM      H14G     HAL2     0.900000E-01   1.00800           0
     14236 MEMB     133      OSM      C15F     CTL2    -0.180000       12.0110           0
     14237 MEMB     133      OSM      H15F     HAL2     0.900000E-01   1.00800           0
     14238 MEMB     133      OSM      H15G     HAL2     0.900000E-01   1.00800           0
     14239 MEMB     133      OSM      C16F     CTL2    -0.180000       12.0110           0
     14240 MEMB     133      OSM      H16F     HAL2     0.900000E-01   1.00800           0
     14241 MEMB     133      OSM      H16G     HAL2     0.900000E-01   1.00800           0
     14242 MEMB     133      OSM      C17F     CTL2    -0.180000       12.0110           0
     14243 MEMB     133      OSM      H17F     HAL2     0.900000E-01   1.00800           0
     14244 MEMB     133      OSM      H17G     HAL2     0.900000E-01   1.00800           0
     14245 MEMB     133      OSM      C18F     CTL3    -0.270000       12.0110           0
     14246 MEMB     133      OSM      H18F     HAL3     0.900000E-01   1.00800           0
     14247 MEMB     133      OSM      H18G     HAL3     0.900000E-01   1.00800           0
     14248 MEMB     133      OSM      H18H     HAL3     0.900000E-01   1.00800           0
     14249 MEMB     134      OSM      N        NTL     -0.600000       14.0070           0
     14250 MEMB     134      OSM      C15      CTL5    -0.350000       12.0110           0
     14251 MEMB     134      OSM      H15A     HL       0.250000       1.00800           0
     14252 MEMB     134      OSM      H15B     HL       0.250000       1.00800           0
     14253 MEMB     134      OSM      H15C     HL       0.250000       1.00800           0
     14254 MEMB     134      OSM      C14      CTL5    -0.350000       12.0110           0
     14255 MEMB     134      OSM      H14A     HL       0.250000       1.00800           0
     14256 MEMB     134      OSM      H14B     HL       0.250000       1.00800           0
     14257 MEMB     134      OSM      H14C     HL       0.250000       1.00800           0
     14258 MEMB     134      OSM      C13      CTL5    -0.350000       12.0110           0
     14259 MEMB     134      OSM      H13A     HL       0.250000       1.00800           0
     14260 MEMB     134      OSM      H13B     HL       0.250000       1.00800           0
     14261 MEMB     134      OSM      H13C     HL       0.250000       1.00800           0
     14262 MEMB     134      OSM      C12      CTL2    -0.100000       12.0110           0
     14263 MEMB     134      OSM      H12A     HL       0.250000       1.00800           0
     14264 MEMB     134      OSM      H12B     HL       0.250000       1.00800           0
     14265 MEMB     134      OSM      C11      CTL2    -0.800000E-01   12.0110           0
     14266 MEMB     134      OSM      H11A     HAL2     0.900000E-01   1.00800           0
     14267 MEMB     134      OSM      H11B     HAL2     0.900000E-01   1.00800           0
     14268 MEMB     134      OSM      P        PL       1.500000       30.9740           0
     14269 MEMB     134      OSM      O13      O2L     -0.780000       15.9994           0
     14270 MEMB     134      OSM      O14      O2L     -0.780000       15.9994           0
     14271 MEMB     134      OSM      O11      OSLP    -0.570000       15.9994           0
     14272 MEMB     134      OSM      O12      OSLP    -0.570000       15.9994           0
     14273 MEMB     134      OSM      C1S      CTL2    -0.800000E-01   12.0110           0
     14274 MEMB     134      OSM      H1S      HAL2     0.900000E-01   1.00800           0
     14275 MEMB     134      OSM      H1T      HAL2     0.900000E-01   1.00800           0
     14276 MEMB     134      OSM      NF       NHL     -0.700000       14.0070           0
     14277 MEMB     134      OSM      HNF      H        0.350000       1.00800           0
     14278 MEMB     134      OSM      C2S      CTL1     0.300000       12.0110           0
     14279 MEMB     134      OSM      H2S      HAL1     0.500000E-01   1.00800           0
     14280 MEMB     134      OSM      C3S      CTO1     0.500000       12.0110           0
     14281 MEMB     134      OSM      H3S      HAL1    -0.110000       1.00800           0
     14282 MEMB     134      OSM      O3       OHL     -0.690000       15.9994           0
     14283 MEMB     134      OSM      HO3      HOL      0.300000       1.00800           0
     14284 MEMB     134      OSM      C4S      CEL3    -0.150000       12.0110           0
     14285 MEMB     134      OSM      H4S      HEL1     0.150000       1.00800           0
     14286 MEMB     134      OSM      C5S      CEL3    -0.150000       12.0110           0
     14287 MEMB     134      OSM      H5S      HEL1     0.150000       1.00800           0
     14288 MEMB     134      OSM      C6S      CTL2    -0.180000       12.0110           0
     14289 MEMB     134      OSM      H6S      HAL2     0.900000E-01   1.00800           0
     14290 MEMB     134      OSM      H6T      HAL2     0.900000E-01   1.00800           0
     14291 MEMB     134      OSM      C7S      CTL2    -0.180000       12.0110           0
     14292 MEMB     134      OSM      H7S      HAL2     0.900000E-01   1.00800           0
     14293 MEMB     134      OSM      H7T      HAL2     0.900000E-01   1.00800           0
     14294 MEMB     134      OSM      C8S      CTL2    -0.180000       12.0110           0
     14295 MEMB     134      OSM      H8S      HAL2     0.900000E-01   1.00800           0
     14296 MEMB     134      OSM      H8T      HAL2     0.900000E-01   1.00800           0
     14297 MEMB     134      OSM      C9S      CTL2    -0.180000       12.0110           0
     14298 MEMB     134      OSM      H9S      HAL2     0.900000E-01   1.00800           0
     14299 MEMB     134      OSM      H9T      HAL2     0.900000E-01   1.00800           0
     14300 MEMB     134      OSM      C10S     CTL2    -0.180000       12.0110           0
     14301 MEMB     134      OSM      H10S     HAL2     0.900000E-01   1.00800           0
     14302 MEMB     134      OSM      H10T     HAL2     0.900000E-01   1.00800           0
     14303 MEMB     134      OSM      C11S     CTL2    -0.180000       12.0110           0
     14304 MEMB     134      OSM      H11S     HAL2     0.900000E-01   1.00800           0
     14305 MEMB     134      OSM      H11T     HAL2     0.900000E-01   1.00800           0
     14306 MEMB     134      OSM      C12S     CTL2    -0.180000       12.0110           0
     14307 MEMB     134      OSM      H12S     HAL2     0.900000E-01   1.00800           0
     14308 MEMB     134      OSM      H12T     HAL2     0.900000E-01   1.00800           0
     14309 MEMB     134      OSM      C13S     CTL2    -0.180000       12.0110           0
     14310 MEMB     134      OSM      H13S     HAL2     0.900000E-01   1.00800           0
     14311 MEMB     134      OSM      H13T     HAL2     0.900000E-01   1.00800           0
     14312 MEMB     134      OSM      C14S     CTL2    -0.180000       12.0110           0
     14313 MEMB     134      OSM      H14S     HAL2     0.900000E-01   1.00800           0
     14314 MEMB     134      OSM      H14T     HAL2     0.900000E-01   1.00800           0
     14315 MEMB     134      OSM      C15S     CTL2    -0.180000       12.0110           0
     14316 MEMB     134      OSM      H15S     HAL2     0.900000E-01   1.00800           0
     14317 MEMB     134      OSM      H15T     HAL2     0.900000E-01   1.00800           0
     14318 MEMB     134      OSM      C16S     CTL2    -0.180000       12.0110           0
     14319 MEMB     134      OSM      H16S     HAL2     0.900000E-01   1.00800           0
     14320 MEMB     134      OSM      H16T     HAL2     0.900000E-01   1.00800           0
     14321 MEMB     134      OSM      C17S     CTL2    -0.180000       12.0110           0
     14322 MEMB     134      OSM      H17S     HAL2     0.900000E-01   1.00800           0
     14323 MEMB     134      OSM      H17T     HAL2     0.900000E-01   1.00800           0
     14324 MEMB     134      OSM      C18S     CTL3    -0.270000       12.0110           0
     14325 MEMB     134      OSM      H18S     HAL3     0.900000E-01   1.00800           0
     14326 MEMB     134      OSM      H18T     HAL3     0.900000E-01   1.00800           0
     14327 MEMB     134      OSM      H18U     HAL3     0.900000E-01   1.00800           0
     14328 MEMB     134      OSM      C1F      C        0.550000       12.0110           0
     14329 MEMB     134      OSM      OF       O       -0.600000       15.9994           0
     14330 MEMB     134      OSM      C2F      CTL2    -0.700000E-01   12.0110           0
     14331 MEMB     134      OSM      H2F      HAL2     0.600000E-01   1.00800           0
     14332 MEMB     134      OSM      H2G      HAL2     0.600000E-01   1.00800           0
     14333 MEMB     134      OSM      C3F      CTL2    -0.180000       12.0110           0
     14334 MEMB     134      OSM      H3F      HAL2     0.900000E-01   1.00800           0
     14335 MEMB     134      OSM      H3G      HAL2     0.900000E-01   1.00800           0
     14336 MEMB     134      OSM      C4F      CTL2    -0.180000       12.0110           0
     14337 MEMB     134      OSM      H4F      HAL2     0.900000E-01   1.00800           0
     14338 MEMB     134      OSM      H4G      HAL2     0.900000E-01   1.00800           0
     14339 MEMB     134      OSM      C5F      CTL2    -0.180000       12.0110           0
     14340 MEMB     134      OSM      H5F      HAL2     0.900000E-01   1.00800           0
     14341 MEMB     134      OSM      H5G      HAL2     0.900000E-01   1.00800           0
     14342 MEMB     134      OSM      C6F      CTL2    -0.180000       12.0110           0
     14343 MEMB     134      OSM      H6F      HAL2     0.900000E-01   1.00800           0
     14344 MEMB     134      OSM      H6G      HAL2     0.900000E-01   1.00800           0
     14345 MEMB     134      OSM      C7F      CTL2    -0.180000       12.0110           0
     14346 MEMB     134      OSM      H7F      HAL2     0.900000E-01   1.00800           0
     14347 MEMB     134      OSM      H7G      HAL2     0.900000E-01   1.00800           0
     14348 MEMB     134      OSM      C8F      CTL2    -0.180000       12.0110           0
     14349 MEMB     134      OSM      H8F      HAL2     0.900000E-01   1.00800           0
     14350 MEMB     134      OSM      H8G      HAL2     0.900000E-01   1.00800           0
     14351 MEMB     134      OSM      C9F      CEL1    -0.150000       12.0110           0
     14352 MEMB     134      OSM      H9F      HEL1     0.150000       1.00800           0
     14353 MEMB     134      OSM      C10F     CEL1    -0.150000       12.0110           0
     14354 MEMB     134      OSM      H10F     HEL1     0.150000       1.00800           0
     14355 MEMB     134      OSM      C11F     CTL2    -0.180000       12.0110           0
     14356 MEMB     134      OSM      H11F     HAL2     0.900000E-01   1.00800           0
     14357 MEMB     134      OSM      H11G     HAL2     0.900000E-01   1.00800           0
     14358 MEMB     134      OSM      C12F     CTL2    -0.180000       12.0110           0
     14359 MEMB     134      OSM      H12F     HAL2     0.900000E-01   1.00800           0
     14360 MEMB     134      OSM      H12G     HAL2     0.900000E-01   1.00800           0
     14361 MEMB     134      OSM      C13F     CTL2    -0.180000       12.0110           0
     14362 MEMB     134      OSM      H13F     HAL2     0.900000E-01   1.00800           0
     14363 MEMB     134      OSM      H13G     HAL2     0.900000E-01   1.00800           0
     14364 MEMB     134      OSM      C14F     CTL2    -0.180000       12.0110           0
     14365 MEMB     134      OSM      H14F     HAL2     0.900000E-01   1.00800           0
     14366 MEMB     134      OSM      H14G     HAL2     0.900000E-01   1.00800           0
     14367 MEMB     134      OSM      C15F     CTL2    -0.180000       12.0110           0
     14368 MEMB     134      OSM      H15F     HAL2     0.900000E-01   1.00800           0
     14369 MEMB     134      OSM      H15G     HAL2     0.900000E-01   1.00800           0
     14370 MEMB     134      OSM      C16F     CTL2    -0.180000       12.0110           0
     14371 MEMB     134      OSM      H16F     HAL2     0.900000E-01   1.00800           0
     14372 MEMB     134      OSM      H16G     HAL2     0.900000E-01   1.00800           0
     14373 MEMB     134      OSM      C17F     CTL2    -0.180000       12.0110           0
     14374 MEMB     134      OSM      H17F     HAL2     0.900000E-01   1.00800           0
     14375 MEMB     134      OSM      H17G     HAL2     0.900000E-01   1.00800           0
     14376 MEMB     134      OSM      C18F     CTL3    -0.270000       12.0110           0
     14377 MEMB     134      OSM      H18F     HAL3     0.900000E-01   1.00800           0
     14378 MEMB     134      OSM      H18G     HAL3     0.900000E-01   1.00800           0
     14379 MEMB     134      OSM      H18H     HAL3     0.900000E-01   1.00800           0
     14380 MEMB     136      OSM      N        NTL     -0.600000       14.0070           0
     14381 MEMB     136      OSM      C15      CTL5    -0.350000       12.0110           0
     14382 MEMB     136      OSM      H15A     HL       0.250000       1.00800           0
     14383 MEMB     136      OSM      H15B     HL       0.250000       1.00800           0
     14384 MEMB     136      OSM      H15C     HL       0.250000       1.00800           0
     14385 MEMB     136      OSM      C14      CTL5    -0.350000       12.0110           0
     14386 MEMB     136      OSM      H14A     HL       0.250000       1.00800           0
     14387 MEMB     136      OSM      H14B     HL       0.250000       1.00800           0
     14388 MEMB     136      OSM      H14C     HL       0.250000       1.00800           0
     14389 MEMB     136      OSM      C13      CTL5    -0.350000       12.0110           0
     14390 MEMB     136      OSM      H13A     HL       0.250000       1.00800           0
     14391 MEMB     136      OSM      H13B     HL       0.250000       1.00800           0
     14392 MEMB     136      OSM      H13C     HL       0.250000       1.00800           0
     14393 MEMB     136      OSM      C12      CTL2    -0.100000       12.0110           0
     14394 MEMB     136      OSM      H12A     HL       0.250000       1.00800           0
     14395 MEMB     136      OSM      H12B     HL       0.250000       1.00800           0
     14396 MEMB     136      OSM      C11      CTL2    -0.800000E-01   12.0110           0
     14397 MEMB     136      OSM      H11A     HAL2     0.900000E-01   1.00800           0
     14398 MEMB     136      OSM      H11B     HAL2     0.900000E-01   1.00800           0
     14399 MEMB     136      OSM      P        PL       1.500000       30.9740           0
     14400 MEMB     136      OSM      O13      O2L     -0.780000       15.9994           0
     14401 MEMB     136      OSM      O14      O2L     -0.780000       15.9994           0
     14402 MEMB     136      OSM      O11      OSLP    -0.570000       15.9994           0
     14403 MEMB     136      OSM      O12      OSLP    -0.570000       15.9994           0
     14404 MEMB     136      OSM      C1S      CTL2    -0.800000E-01   12.0110           0
     14405 MEMB     136      OSM      H1S      HAL2     0.900000E-01   1.00800           0
     14406 MEMB     136      OSM      H1T      HAL2     0.900000E-01   1.00800           0
     14407 MEMB     136      OSM      NF       NHL     -0.700000       14.0070           0
     14408 MEMB     136      OSM      HNF      H        0.350000       1.00800           0
     14409 MEMB     136      OSM      C2S      CTL1     0.300000       12.0110           0
     14410 MEMB     136      OSM      H2S      HAL1     0.500000E-01   1.00800           0
     14411 MEMB     136      OSM      C3S      CTO1     0.500000       12.0110           0
     14412 MEMB     136      OSM      H3S      HAL1    -0.110000       1.00800           0
     14413 MEMB     136      OSM      O3       OHL     -0.690000       15.9994           0
     14414 MEMB     136      OSM      HO3      HOL      0.300000       1.00800           0
     14415 MEMB     136      OSM      C4S      CEL3    -0.150000       12.0110           0
     14416 MEMB     136      OSM      H4S      HEL1     0.150000       1.00800           0
     14417 MEMB     136      OSM      C5S      CEL3    -0.150000       12.0110           0
     14418 MEMB     136      OSM      H5S      HEL1     0.150000       1.00800           0
     14419 MEMB     136      OSM      C6S      CTL2    -0.180000       12.0110           0
     14420 MEMB     136      OSM      H6S      HAL2     0.900000E-01   1.00800           0
     14421 MEMB     136      OSM      H6T      HAL2     0.900000E-01   1.00800           0
     14422 MEMB     136      OSM      C7S      CTL2    -0.180000       12.0110           0
     14423 MEMB     136      OSM      H7S      HAL2     0.900000E-01   1.00800           0
     14424 MEMB     136      OSM      H7T      HAL2     0.900000E-01   1.00800           0
     14425 MEMB     136      OSM      C8S      CTL2    -0.180000       12.0110           0
     14426 MEMB     136      OSM      H8S      HAL2     0.900000E-01   1.00800           0
     14427 MEMB     136      OSM      H8T      HAL2     0.900000E-01   1.00800           0
     14428 MEMB     136      OSM      C9S      CTL2    -0.180000       12.0110           0
     14429 MEMB     136      OSM      H9S      HAL2     0.900000E-01   1.00800           0
     14430 MEMB     136      OSM      H9T      HAL2     0.900000E-01   1.00800           0
     14431 MEMB     136      OSM      C10S     CTL2    -0.180000       12.0110           0
     14432 MEMB     136      OSM      H10S     HAL2     0.900000E-01   1.00800           0
     14433 MEMB     136      OSM      H10T     HAL2     0.900000E-01   1.00800           0
     14434 MEMB     136      OSM      C11S     CTL2    -0.180000       12.0110           0
     14435 MEMB     136      OSM      H11S     HAL2     0.900000E-01   1.00800           0
     14436 MEMB     136      OSM      H11T     HAL2     0.900000E-01   1.00800           0
     14437 MEMB     136      OSM      C12S     CTL2    -0.180000       12.0110           0
     14438 MEMB     136      OSM      H12S     HAL2     0.900000E-01   1.00800           0
     14439 MEMB     136      OSM      H12T     HAL2     0.900000E-01   1.00800           0
     14440 MEMB     136      OSM      C13S     CTL2    -0.180000       12.0110           0
     14441 MEMB     136      OSM      H13S     HAL2     0.900000E-01   1.00800           0
     14442 MEMB     136      OSM      H13T     HAL2     0.900000E-01   1.00800           0
     14443 MEMB     136      OSM      C14S     CTL2    -0.180000       12.0110           0
     14444 MEMB     136      OSM      H14S     HAL2     0.900000E-01   1.00800           0
     14445 MEMB     136      OSM      H14T     HAL2     0.900000E-01   1.00800           0
     14446 MEMB     136      OSM      C15S     CTL2    -0.180000       12.0110           0
     14447 MEMB     136      OSM      H15S     HAL2     0.900000E-01   1.00800           0
     14448 MEMB     136      OSM      H15T     HAL2     0.900000E-01   1.00800           0
     14449 MEMB     136      OSM      C16S     CTL2    -0.180000       12.0110           0
     14450 MEMB     136      OSM      H16S     HAL2     0.900000E-01   1.00800           0
     14451 MEMB     136      OSM      H16T     HAL2     0.900000E-01   1.00800           0
     14452 MEMB     136      OSM      C17S     CTL2    -0.180000       12.0110           0
     14453 MEMB     136      OSM      H17S     HAL2     0.900000E-01   1.00800           0
     14454 MEMB     136      OSM      H17T     HAL2     0.900000E-01   1.00800           0
     14455 MEMB     136      OSM      C18S     CTL3    -0.270000       12.0110           0
     14456 MEMB     136      OSM      H18S     HAL3     0.900000E-01   1.00800           0
     14457 MEMB     136      OSM      H18T     HAL3     0.900000E-01   1.00800           0
     14458 MEMB     136      OSM      H18U     HAL3     0.900000E-01   1.00800           0
     14459 MEMB     136      OSM      C1F      C        0.550000       12.0110           0
     14460 MEMB     136      OSM      OF       O       -0.600000       15.9994           0
     14461 MEMB     136      OSM      C2F      CTL2    -0.700000E-01   12.0110           0
     14462 MEMB     136      OSM      H2F      HAL2     0.600000E-01   1.00800           0
     14463 MEMB     136      OSM      H2G      HAL2     0.600000E-01   1.00800           0
     14464 MEMB     136      OSM      C3F      CTL2    -0.180000       12.0110           0
     14465 MEMB     136      OSM      H3F      HAL2     0.900000E-01   1.00800           0
     14466 MEMB     136      OSM      H3G      HAL2     0.900000E-01   1.00800           0
     14467 MEMB     136      OSM      C4F      CTL2    -0.180000       12.0110           0
     14468 MEMB     136      OSM      H4F      HAL2     0.900000E-01   1.00800           0
     14469 MEMB     136      OSM      H4G      HAL2     0.900000E-01   1.00800           0
     14470 MEMB     136      OSM      C5F      CTL2    -0.180000       12.0110           0
     14471 MEMB     136      OSM      H5F      HAL2     0.900000E-01   1.00800           0
     14472 MEMB     136      OSM      H5G      HAL2     0.900000E-01   1.00800           0
     14473 MEMB     136      OSM      C6F      CTL2    -0.180000       12.0110           0
     14474 MEMB     136      OSM      H6F      HAL2     0.900000E-01   1.00800           0
     14475 MEMB     136      OSM      H6G      HAL2     0.900000E-01   1.00800           0
     14476 MEMB     136      OSM      C7F      CTL2    -0.180000       12.0110           0
     14477 MEMB     136      OSM      H7F      HAL2     0.900000E-01   1.00800           0
     14478 MEMB     136      OSM      H7G      HAL2     0.900000E-01   1.00800           0
     14479 MEMB     136      OSM      C8F      CTL2    -0.180000       12.0110           0
     14480 MEMB     136      OSM      H8F      HAL2     0.900000E-01   1.00800           0
     14481 MEMB     136      OSM      H8G      HAL2     0.900000E-01   1.00800           0
     14482 MEMB     136      OSM      C9F      CEL1    -0.150000       12.0110           0
     14483 MEMB     136      OSM      H9F      HEL1     0.150000       1.00800           0
     14484 MEMB     136      OSM      C10F     CEL1    -0.150000       12.0110           0
     14485 MEMB     136      OSM      H10F     HEL1     0.150000       1.00800           0
     14486 MEMB     136      OSM      C11F     CTL2    -0.180000       12.0110           0
     14487 MEMB     136      OSM      H11F     HAL2     0.900000E-01   1.00800           0
     14488 MEMB     136      OSM      H11G     HAL2     0.900000E-01   1.00800           0
     14489 MEMB     136      OSM      C12F     CTL2    -0.180000       12.0110           0
     14490 MEMB     136      OSM      H12F     HAL2     0.900000E-01   1.00800           0
     14491 MEMB     136      OSM      H12G     HAL2     0.900000E-01   1.00800           0
     14492 MEMB     136      OSM      C13F     CTL2    -0.180000       12.0110           0
     14493 MEMB     136      OSM      H13F     HAL2     0.900000E-01   1.00800           0
     14494 MEMB     136      OSM      H13G     HAL2     0.900000E-01   1.00800           0
     14495 MEMB     136      OSM      C14F     CTL2    -0.180000       12.0110           0
     14496 MEMB     136      OSM      H14F     HAL2     0.900000E-01   1.00800           0
     14497 MEMB     136      OSM      H14G     HAL2     0.900000E-01   1.00800           0
     14498 MEMB     136      OSM      C15F     CTL2    -0.180000       12.0110           0
     14499 MEMB     136      OSM      H15F     HAL2     0.900000E-01   1.00800           0
     14500 MEMB     136      OSM      H15G     HAL2     0.900000E-01   1.00800           0
     14501 MEMB     136      OSM      C16F     CTL2    -0.180000       12.0110           0
     14502 MEMB     136      OSM      H16F     HAL2     0.900000E-01   1.00800           0
     14503 MEMB     136      OSM      H16G     HAL2     0.900000E-01   1.00800           0
     14504 MEMB     136      OSM      C17F     CTL2    -0.180000       12.0110           0
     14505 MEMB     136      OSM      H17F     HAL2     0.900000E-01   1.00800           0
     14506 MEMB     136      OSM      H17G     HAL2     0.900000E-01   1.00800           0
     14507 MEMB     136      OSM      C18F     CTL3    -0.270000       12.0110           0
     14508 MEMB     136      OSM      H18F     HAL3     0.900000E-01   1.00800           0
     14509 MEMB     136      OSM      H18G     HAL3     0.900000E-01   1.00800           0
     14510 MEMB     136      OSM      H18H     HAL3     0.900000E-01   1.00800           0
     14511 MEMB     137      OSM      N        NTL     -0.600000       14.0070           0
     14512 MEMB     137      OSM      C15      CTL5    -0.350000       12.0110           0
     14513 MEMB     137      OSM      H15A     HL       0.250000       1.00800           0
     14514 MEMB     137      OSM      H15B     HL       0.250000       1.00800           0
     14515 MEMB     137      OSM      H15C     HL       0.250000       1.00800           0
     14516 MEMB     137      OSM      C14      CTL5    -0.350000       12.0110           0
     14517 MEMB     137      OSM      H14A     HL       0.250000       1.00800           0
     14518 MEMB     137      OSM      H14B     HL       0.250000       1.00800           0
     14519 MEMB     137      OSM      H14C     HL       0.250000       1.00800           0
     14520 MEMB     137      OSM      C13      CTL5    -0.350000       12.0110           0
     14521 MEMB     137      OSM      H13A     HL       0.250000       1.00800           0
     14522 MEMB     137      OSM      H13B     HL       0.250000       1.00800           0
     14523 MEMB     137      OSM      H13C     HL       0.250000       1.00800           0
     14524 MEMB     137      OSM      C12      CTL2    -0.100000       12.0110           0
     14525 MEMB     137      OSM      H12A     HL       0.250000       1.00800           0
     14526 MEMB     137      OSM      H12B     HL       0.250000       1.00800           0
     14527 MEMB     137      OSM      C11      CTL2    -0.800000E-01   12.0110           0
     14528 MEMB     137      OSM      H11A     HAL2     0.900000E-01   1.00800           0
     14529 MEMB     137      OSM      H11B     HAL2     0.900000E-01   1.00800           0
     14530 MEMB     137      OSM      P        PL       1.500000       30.9740           0
     14531 MEMB     137      OSM      O13      O2L     -0.780000       15.9994           0
     14532 MEMB     137      OSM      O14      O2L     -0.780000       15.9994           0
     14533 MEMB     137      OSM      O11      OSLP    -0.570000       15.9994           0
     14534 MEMB     137      OSM      O12      OSLP    -0.570000       15.9994           0
     14535 MEMB     137      OSM      C1S      CTL2    -0.800000E-01   12.0110           0
     14536 MEMB     137      OSM      H1S      HAL2     0.900000E-01   1.00800           0
     14537 MEMB     137      OSM      H1T      HAL2     0.900000E-01   1.00800           0
     14538 MEMB     137      OSM      NF       NHL     -0.700000       14.0070           0
     14539 MEMB     137      OSM      HNF      H        0.350000       1.00800           0
     14540 MEMB     137      OSM      C2S      CTL1     0.300000       12.0110           0
     14541 MEMB     137      OSM      H2S      HAL1     0.500000E-01   1.00800           0
     14542 MEMB     137      OSM      C3S      CTO1     0.500000       12.0110           0
     14543 MEMB     137      OSM      H3S      HAL1    -0.110000       1.00800           0
     14544 MEMB     137      OSM      O3       OHL     -0.690000       15.9994           0
     14545 MEMB     137      OSM      HO3      HOL      0.300000       1.00800           0
     14546 MEMB     137      OSM      C4S      CEL3    -0.150000       12.0110           0
     14547 MEMB     137      OSM      H4S      HEL1     0.150000       1.00800           0
     14548 MEMB     137      OSM      C5S      CEL3    -0.150000       12.0110           0
     14549 MEMB     137      OSM      H5S      HEL1     0.150000       1.00800           0
     14550 MEMB     137      OSM      C6S      CTL2    -0.180000       12.0110           0
     14551 MEMB     137      OSM      H6S      HAL2     0.900000E-01   1.00800           0
     14552 MEMB     137      OSM      H6T      HAL2     0.900000E-01   1.00800           0
     14553 MEMB     137      OSM      C7S      CTL2    -0.180000       12.0110           0
     14554 MEMB     137      OSM      H7S      HAL2     0.900000E-01   1.00800           0
     14555 MEMB     137      OSM      H7T      HAL2     0.900000E-01   1.00800           0
     14556 MEMB     137      OSM      C8S      CTL2    -0.180000       12.0110           0
     14557 MEMB     137      OSM      H8S      HAL2     0.900000E-01   1.00800           0
     14558 MEMB     137      OSM      H8T      HAL2     0.900000E-01   1.00800           0
     14559 MEMB     137      OSM      C9S      CTL2    -0.180000       12.0110           0
     14560 MEMB     137      OSM      H9S      HAL2     0.900000E-01   1.00800           0
     14561 MEMB     137      OSM      H9T      HAL2     0.900000E-01   1.00800           0
     14562 MEMB     137      OSM      C10S     CTL2    -0.180000       12.0110           0
     14563 MEMB     137      OSM      H10S     HAL2     0.900000E-01   1.00800           0
     14564 MEMB     137      OSM      H10T     HAL2     0.900000E-01   1.00800           0
     14565 MEMB     137      OSM      C11S     CTL2    -0.180000       12.0110           0
     14566 MEMB     137      OSM      H11S     HAL2     0.900000E-01   1.00800           0
     14567 MEMB     137      OSM      H11T     HAL2     0.900000E-01   1.00800           0
     14568 MEMB     137      OSM      C12S     CTL2    -0.180000       12.0110           0
     14569 MEMB     137      OSM      H12S     HAL2     0.900000E-01   1.00800           0
     14570 MEMB     137      OSM      H12T     HAL2     0.900000E-01   1.00800           0
     14571 MEMB     137      OSM      C13S     CTL2    -0.180000       12.0110           0
     14572 MEMB     137      OSM      H13S     HAL2     0.900000E-01   1.00800           0
     14573 MEMB     137      OSM      H13T     HAL2     0.900000E-01   1.00800           0
     14574 MEMB     137      OSM      C14S     CTL2    -0.180000       12.0110           0
     14575 MEMB     137      OSM      H14S     HAL2     0.900000E-01   1.00800           0
     14576 MEMB     137      OSM      H14T     HAL2     0.900000E-01   1.00800           0
     14577 MEMB     137      OSM      C15S     CTL2    -0.180000       12.0110           0
     14578 MEMB     137      OSM      H15S     HAL2     0.900000E-01   1.00800           0
     14579 MEMB     137      OSM      H15T     HAL2     0.900000E-01   1.00800           0
     14580 MEMB     137      OSM      C16S     CTL2    -0.180000       12.0110           0
     14581 MEMB     137      OSM      H16S     HAL2     0.900000E-01   1.00800           0
     14582 MEMB     137      OSM      H16T     HAL2     0.900000E-01   1.00800           0
     14583 MEMB     137      OSM      C17S     CTL2    -0.180000       12.0110           0
     14584 MEMB     137      OSM      H17S     HAL2     0.900000E-01   1.00800           0
     14585 MEMB     137      OSM      H17T     HAL2     0.900000E-01   1.00800           0
     14586 MEMB     137      OSM      C18S     CTL3    -0.270000       12.0110           0
     14587 MEMB     137      OSM      H18S     HAL3     0.900000E-01   1.00800           0
     14588 MEMB     137      OSM      H18T     HAL3     0.900000E-01   1.00800           0
     14589 MEMB     137      OSM      H18U     HAL3     0.900000E-01   1.00800           0
     14590 MEMB     137      OSM      C1F      C        0.550000       12.0110           0
     14591 MEMB     137      OSM      OF       O       -0.600000       15.9994           0
     14592 MEMB     137      OSM      C2F      CTL2    -0.700000E-01   12.0110           0
     14593 MEMB     137      OSM      H2F      HAL2     0.600000E-01   1.00800           0
     14594 MEMB     137      OSM      H2G      HAL2     0.600000E-01   1.00800           0
     14595 MEMB     137      OSM      C3F      CTL2    -0.180000       12.0110           0
     14596 MEMB     137      OSM      H3F      HAL2     0.900000E-01   1.00800           0
     14597 MEMB     137      OSM      H3G      HAL2     0.900000E-01   1.00800           0
     14598 MEMB     137      OSM      C4F      CTL2    -0.180000       12.0110           0
     14599 MEMB     137      OSM      H4F      HAL2     0.900000E-01   1.00800           0
     14600 MEMB     137      OSM      H4G      HAL2     0.900000E-01   1.00800           0
     14601 MEMB     137      OSM      C5F      CTL2    -0.180000       12.0110           0
     14602 MEMB     137      OSM      H5F      HAL2     0.900000E-01   1.00800           0
     14603 MEMB     137      OSM      H5G      HAL2     0.900000E-01   1.00800           0
     14604 MEMB     137      OSM      C6F      CTL2    -0.180000       12.0110           0
     14605 MEMB     137      OSM      H6F      HAL2     0.900000E-01   1.00800           0
     14606 MEMB     137      OSM      H6G      HAL2     0.900000E-01   1.00800           0
     14607 MEMB     137      OSM      C7F      CTL2    -0.180000       12.0110           0
     14608 MEMB     137      OSM      H7F      HAL2     0.900000E-01   1.00800           0
     14609 MEMB     137      OSM      H7G      HAL2     0.900000E-01   1.00800           0
     14610 MEMB     137      OSM      C8F      CTL2    -0.180000       12.0110           0
     14611 MEMB     137      OSM      H8F      HAL2     0.900000E-01   1.00800           0
     14612 MEMB     137      OSM      H8G      HAL2     0.900000E-01   1.00800           0
     14613 MEMB     137      OSM      C9F      CEL1    -0.150000       12.0110           0
     14614 MEMB     137      OSM      H9F      HEL1     0.150000       1.00800           0
     14615 MEMB     137      OSM      C10F     CEL1    -0.150000       12.0110           0
     14616 MEMB     137      OSM      H10F     HEL1     0.150000       1.00800           0
     14617 MEMB     137      OSM      C11F     CTL2    -0.180000       12.0110           0
     14618 MEMB     137      OSM      H11F     HAL2     0.900000E-01   1.00800           0
     14619 MEMB     137      OSM      H11G     HAL2     0.900000E-01   1.00800           0
     14620 MEMB     137      OSM      C12F     CTL2    -0.180000       12.0110           0
     14621 MEMB     137      OSM      H12F     HAL2     0.900000E-01   1.00800           0
     14622 MEMB     137      OSM      H12G     HAL2     0.900000E-01   1.00800           0
     14623 MEMB     137      OSM      C13F     CTL2    -0.180000       12.0110           0
     14624 MEMB     137      OSM      H13F     HAL2     0.900000E-01   1.00800           0
     14625 MEMB     137      OSM      H13G     HAL2     0.900000E-01   1.00800           0
     14626 MEMB     137      OSM      C14F     CTL2    -0.180000       12.0110           0
     14627 MEMB     137      OSM      H14F     HAL2     0.900000E-01   1.00800           0
     14628 MEMB     137      OSM      H14G     HAL2     0.900000E-01   1.00800           0
     14629 MEMB     137      OSM      C15F     CTL2    -0.180000       12.0110           0
     14630 MEMB     137      OSM      H15F     HAL2     0.900000E-01   1.00800           0
     14631 MEMB     137      OSM      H15G     HAL2     0.900000E-01   1.00800           0
     14632 MEMB     137      OSM      C16F     CTL2    -0.180000       12.0110           0
     14633 MEMB     137      OSM      H16F     HAL2     0.900000E-01   1.00800           0
     14634 MEMB     137      OSM      H16G     HAL2     0.900000E-01   1.00800           0
     14635 MEMB     137      OSM      C17F     CTL2    -0.180000       12.0110           0
     14636 MEMB     137      OSM      H17F     HAL2     0.900000E-01   1.00800           0
     14637 MEMB     137      OSM      H17G     HAL2     0.900000E-01   1.00800           0
     14638 MEMB     137      OSM      C18F     CTL3    -0.270000       12.0110           0
     14639 MEMB     137      OSM      H18F     HAL3     0.900000E-01   1.00800           0
     14640 MEMB     137      OSM      H18G     HAL3     0.900000E-01   1.00800           0
     14641 MEMB     137      OSM      H18H     HAL3     0.900000E-01   1.00800           0
     14642 MEMB     140      OSM      N        NTL     -0.600000       14.0070           0
     14643 MEMB     140      OSM      C15      CTL5    -0.350000       12.0110           0
     14644 MEMB     140      OSM      H15A     HL       0.250000       1.00800           0
     14645 MEMB     140      OSM      H15B     HL       0.250000       1.00800           0
     14646 MEMB     140      OSM      H15C     HL       0.250000       1.00800           0
     14647 MEMB     140      OSM      C14      CTL5    -0.350000       12.0110           0
     14648 MEMB     140      OSM      H14A     HL       0.250000       1.00800           0
     14649 MEMB     140      OSM      H14B     HL       0.250000       1.00800           0
     14650 MEMB     140      OSM      H14C     HL       0.250000       1.00800           0
     14651 MEMB     140      OSM      C13      CTL5    -0.350000       12.0110           0
     14652 MEMB     140      OSM      H13A     HL       0.250000       1.00800           0
     14653 MEMB     140      OSM      H13B     HL       0.250000       1.00800           0
     14654 MEMB     140      OSM      H13C     HL       0.250000       1.00800           0
     14655 MEMB     140      OSM      C12      CTL2    -0.100000       12.0110           0
     14656 MEMB     140      OSM      H12A     HL       0.250000       1.00800           0
     14657 MEMB     140      OSM      H12B     HL       0.250000       1.00800           0
     14658 MEMB     140      OSM      C11      CTL2    -0.800000E-01   12.0110           0
     14659 MEMB     140      OSM      H11A     HAL2     0.900000E-01   1.00800           0
     14660 MEMB     140      OSM      H11B     HAL2     0.900000E-01   1.00800           0
     14661 MEMB     140      OSM      P        PL       1.500000       30.9740           0
     14662 MEMB     140      OSM      O13      O2L     -0.780000       15.9994           0
     14663 MEMB     140      OSM      O14      O2L     -0.780000       15.9994           0
     14664 MEMB     140      OSM      O11      OSLP    -0.570000       15.9994           0
     14665 MEMB     140      OSM      O12      OSLP    -0.570000       15.9994           0
     14666 MEMB     140      OSM      C1S      CTL2    -0.800000E-01   12.0110           0
     14667 MEMB     140      OSM      H1S      HAL2     0.900000E-01   1.00800           0
     14668 MEMB     140      OSM      H1T      HAL2     0.900000E-01   1.00800           0
     14669 MEMB     140      OSM      NF       NHL     -0.700000       14.0070           0
     14670 MEMB     140      OSM      HNF      H        0.350000       1.00800           0
     14671 MEMB     140      OSM      C2S      CTL1     0.300000       12.0110           0
     14672 MEMB     140      OSM      H2S      HAL1     0.500000E-01   1.00800           0
     14673 MEMB     140      OSM      C3S      CTO1     0.500000       12.0110           0
     14674 MEMB     140      OSM      H3S      HAL1    -0.110000       1.00800           0
     14675 MEMB     140      OSM      O3       OHL     -0.690000       15.9994           0
     14676 MEMB     140      OSM      HO3      HOL      0.300000       1.00800           0
     14677 MEMB     140      OSM      C4S      CEL3    -0.150000       12.0110           0
     14678 MEMB     140      OSM      H4S      HEL1     0.150000       1.00800           0
     14679 MEMB     140      OSM      C5S      CEL3    -0.150000       12.0110           0
     14680 MEMB     140      OSM      H5S      HEL1     0.150000       1.00800           0
     14681 MEMB     140      OSM      C6S      CTL2    -0.180000       12.0110           0
     14682 MEMB     140      OSM      H6S      HAL2     0.900000E-01   1.00800           0
     14683 MEMB     140      OSM      H6T      HAL2     0.900000E-01   1.00800           0
     14684 MEMB     140      OSM      C7S      CTL2    -0.180000       12.0110           0
     14685 MEMB     140      OSM      H7S      HAL2     0.900000E-01   1.00800           0
     14686 MEMB     140      OSM      H7T      HAL2     0.900000E-01   1.00800           0
     14687 MEMB     140      OSM      C8S      CTL2    -0.180000       12.0110           0
     14688 MEMB     140      OSM      H8S      HAL2     0.900000E-01   1.00800           0
     14689 MEMB     140      OSM      H8T      HAL2     0.900000E-01   1.00800           0
     14690 MEMB     140      OSM      C9S      CTL2    -0.180000       12.0110           0
     14691 MEMB     140      OSM      H9S      HAL2     0.900000E-01   1.00800           0
     14692 MEMB     140      OSM      H9T      HAL2     0.900000E-01   1.00800           0
     14693 MEMB     140      OSM      C10S     CTL2    -0.180000       12.0110           0
     14694 MEMB     140      OSM      H10S     HAL2     0.900000E-01   1.00800           0
     14695 MEMB     140      OSM      H10T     HAL2     0.900000E-01   1.00800           0
     14696 MEMB     140      OSM      C11S     CTL2    -0.180000       12.0110           0
     14697 MEMB     140      OSM      H11S     HAL2     0.900000E-01   1.00800           0
     14698 MEMB     140      OSM      H11T     HAL2     0.900000E-01   1.00800           0
     14699 MEMB     140      OSM      C12S     CTL2    -0.180000       12.0110           0
     14700 MEMB     140      OSM      H12S     HAL2     0.900000E-01   1.00800           0
     14701 MEMB     140      OSM      H12T     HAL2     0.900000E-01   1.00800           0
     14702 MEMB     140      OSM      C13S     CTL2    -0.180000       12.0110           0
     14703 MEMB     140      OSM      H13S     HAL2     0.900000E-01   1.00800           0
     14704 MEMB     140      OSM      H13T     HAL2     0.900000E-01   1.00800           0
     14705 MEMB     140      OSM      C14S     CTL2    -0.180000       12.0110           0
     14706 MEMB     140      OSM      H14S     HAL2     0.900000E-01   1.00800           0
     14707 MEMB     140      OSM      H14T     HAL2     0.900000E-01   1.00800           0
     14708 MEMB     140      OSM      C15S     CTL2    -0.180000       12.0110           0
     14709 MEMB     140      OSM      H15S     HAL2     0.900000E-01   1.00800           0
     14710 MEMB     140      OSM      H15T     HAL2     0.900000E-01   1.00800           0
     14711 MEMB     140      OSM      C16S     CTL2    -0.180000       12.0110           0
     14712 MEMB     140      OSM      H16S     HAL2     0.900000E-01   1.00800           0
     14713 MEMB     140      OSM      H16T     HAL2     0.900000E-01   1.00800           0
     14714 MEMB     140      OSM      C17S     CTL2    -0.180000       12.0110           0
     14715 MEMB     140      OSM      H17S     HAL2     0.900000E-01   1.00800           0
     14716 MEMB     140      OSM      H17T     HAL2     0.900000E-01   1.00800           0
     14717 MEMB     140      OSM      C18S     CTL3    -0.270000       12.0110           0
     14718 MEMB     140      OSM      H18S     HAL3     0.900000E-01   1.00800           0
     14719 MEMB     140      OSM      H18T     HAL3     0.900000E-01   1.00800           0
     14720 MEMB     140      OSM      H18U     HAL3     0.900000E-01   1.00800           0
     14721 MEMB     140      OSM      C1F      C        0.550000       12.0110           0
     14722 MEMB     140      OSM      OF       O       -0.600000       15.9994           0
     14723 MEMB     140      OSM      C2F      CTL2    -0.700000E-01   12.0110           0
     14724 MEMB     140      OSM      H2F      HAL2     0.600000E-01   1.00800           0
     14725 MEMB     140      OSM      H2G      HAL2     0.600000E-01   1.00800           0
     14726 MEMB     140      OSM      C3F      CTL2    -0.180000       12.0110           0
     14727 MEMB     140      OSM      H3F      HAL2     0.900000E-01   1.00800           0
     14728 MEMB     140      OSM      H3G      HAL2     0.900000E-01   1.00800           0
     14729 MEMB     140      OSM      C4F      CTL2    -0.180000       12.0110           0
     14730 MEMB     140      OSM      H4F      HAL2     0.900000E-01   1.00800           0
     14731 MEMB     140      OSM      H4G      HAL2     0.900000E-01   1.00800           0
     14732 MEMB     140      OSM      C5F      CTL2    -0.180000       12.0110           0
     14733 MEMB     140      OSM      H5F      HAL2     0.900000E-01   1.00800           0
     14734 MEMB     140      OSM      H5G      HAL2     0.900000E-01   1.00800           0
     14735 MEMB     140      OSM      C6F      CTL2    -0.180000       12.0110           0
     14736 MEMB     140      OSM      H6F      HAL2     0.900000E-01   1.00800           0
     14737 MEMB     140      OSM      H6G      HAL2     0.900000E-01   1.00800           0
     14738 MEMB     140      OSM      C7F      CTL2    -0.180000       12.0110           0
     14739 MEMB     140      OSM      H7F      HAL2     0.900000E-01   1.00800           0
     14740 MEMB     140      OSM      H7G      HAL2     0.900000E-01   1.00800           0
     14741 MEMB     140      OSM      C8F      CTL2    -0.180000       12.0110           0
     14742 MEMB     140      OSM      H8F      HAL2     0.900000E-01   1.00800           0
     14743 MEMB     140      OSM      H8G      HAL2     0.900000E-01   1.00800           0
     14744 MEMB     140      OSM      C9F      CEL1    -0.150000       12.0110           0
     14745 MEMB     140      OSM      H9F      HEL1     0.150000       1.00800           0
     14746 MEMB     140      OSM      C10F     CEL1    -0.150000       12.0110           0
     14747 MEMB     140      OSM      H10F     HEL1     0.150000       1.00800           0
     14748 MEMB     140      OSM      C11F     CTL2    -0.180000       12.0110           0
     14749 MEMB     140      OSM      H11F     HAL2     0.900000E-01   1.00800           0
     14750 MEMB     140      OSM      H11G     HAL2     0.900000E-01   1.00800           0
     14751 MEMB     140      OSM      C12F     CTL2    -0.180000       12.0110           0
     14752 MEMB     140      OSM      H12F     HAL2     0.900000E-01   1.00800           0
     14753 MEMB     140      OSM      H12G     HAL2     0.900000E-01   1.00800           0
     14754 MEMB     140      OSM      C13F     CTL2    -0.180000       12.0110           0
     14755 MEMB     140      OSM      H13F     HAL2     0.900000E-01   1.00800           0
     14756 MEMB     140      OSM      H13G     HAL2     0.900000E-01   1.00800           0
     14757 MEMB     140      OSM      C14F     CTL2    -0.180000       12.0110           0
     14758 MEMB     140      OSM      H14F     HAL2     0.900000E-01   1.00800           0
     14759 MEMB     140      OSM      H14G     HAL2     0.900000E-01   1.00800           0
     14760 MEMB     140      OSM      C15F     CTL2    -0.180000       12.0110           0
     14761 MEMB     140      OSM      H15F     HAL2     0.900000E-01   1.00800           0
     14762 MEMB     140      OSM      H15G     HAL2     0.900000E-01   1.00800           0
     14763 MEMB     140      OSM      C16F     CTL2    -0.180000       12.0110           0
     14764 MEMB     140      OSM      H16F     HAL2     0.900000E-01   1.00800           0
     14765 MEMB     140      OSM      H16G     HAL2     0.900000E-01   1.00800           0
     14766 MEMB     140      OSM      C17F     CTL2    -0.180000       12.0110           0
     14767 MEMB     140      OSM      H17F     HAL2     0.900000E-01   1.00800           0
     14768 MEMB     140      OSM      H17G     HAL2     0.900000E-01   1.00800           0
     14769 MEMB     140      OSM      C18F     CTL3    -0.270000       12.0110           0
     14770 MEMB     140      OSM      H18F     HAL3     0.900000E-01   1.00800           0
     14771 MEMB     140      OSM      H18G     HAL3     0.900000E-01   1.00800           0
     14772 MEMB     140      OSM      H18H     HAL3     0.900000E-01   1.00800           0
     14773 MEMB     143      OSM      N        NTL     -0.600000       14.0070           0
     14774 MEMB     143      OSM      C15      CTL5    -0.350000       12.0110           0
     14775 MEMB     143      OSM      H15A     HL       0.250000       1.00800           0
     14776 MEMB     143      OSM      H15B     HL       0.250000       1.00800           0
     14777 MEMB     143      OSM      H15C     HL       0.250000       1.00800           0
     14778 MEMB     143      OSM      C14      CTL5    -0.350000       12.0110           0
     14779 MEMB     143      OSM      H14A     HL       0.250000       1.00800           0
     14780 MEMB     143      OSM      H14B     HL       0.250000       1.00800           0
     14781 MEMB     143      OSM      H14C     HL       0.250000       1.00800           0
     14782 MEMB     143      OSM      C13      CTL5    -0.350000       12.0110           0
     14783 MEMB     143      OSM      H13A     HL       0.250000       1.00800           0
     14784 MEMB     143      OSM      H13B     HL       0.250000       1.00800           0
     14785 MEMB     143      OSM      H13C     HL       0.250000       1.00800           0
     14786 MEMB     143      OSM      C12      CTL2    -0.100000       12.0110           0
     14787 MEMB     143      OSM      H12A     HL       0.250000       1.00800           0
     14788 MEMB     143      OSM      H12B     HL       0.250000       1.00800           0
     14789 MEMB     143      OSM      C11      CTL2    -0.800000E-01   12.0110           0
     14790 MEMB     143      OSM      H11A     HAL2     0.900000E-01   1.00800           0
     14791 MEMB     143      OSM      H11B     HAL2     0.900000E-01   1.00800           0
     14792 MEMB     143      OSM      P        PL       1.500000       30.9740           0
     14793 MEMB     143      OSM      O13      O2L     -0.780000       15.9994           0
     14794 MEMB     143      OSM      O14      O2L     -0.780000       15.9994           0
     14795 MEMB     143      OSM      O11      OSLP    -0.570000       15.9994           0
     14796 MEMB     143      OSM      O12      OSLP    -0.570000       15.9994           0
     14797 MEMB     143      OSM      C1S      CTL2    -0.800000E-01   12.0110           0
     14798 MEMB     143      OSM      H1S      HAL2     0.900000E-01   1.00800           0
     14799 MEMB     143      OSM      H1T      HAL2     0.900000E-01   1.00800           0
     14800 MEMB     143      OSM      NF       NHL     -0.700000       14.0070           0
     14801 MEMB     143      OSM      HNF      H        0.350000       1.00800           0
     14802 MEMB     143      OSM      C2S      CTL1     0.300000       12.0110           0
     14803 MEMB     143      OSM      H2S      HAL1     0.500000E-01   1.00800           0
     14804 MEMB     143      OSM      C3S      CTO1     0.500000       12.0110           0
     14805 MEMB     143      OSM      H3S      HAL1    -0.110000       1.00800           0
     14806 MEMB     143      OSM      O3       OHL     -0.690000       15.9994           0
     14807 MEMB     143      OSM      HO3      HOL      0.300000       1.00800           0
     14808 MEMB     143      OSM      C4S      CEL3    -0.150000       12.0110           0
     14809 MEMB     143      OSM      H4S      HEL1     0.150000       1.00800           0
     14810 MEMB     143      OSM      C5S      CEL3    -0.150000       12.0110           0
     14811 MEMB     143      OSM      H5S      HEL1     0.150000       1.00800           0
     14812 MEMB     143      OSM      C6S      CTL2    -0.180000       12.0110           0
     14813 MEMB     143      OSM      H6S      HAL2     0.900000E-01   1.00800           0
     14814 MEMB     143      OSM      H6T      HAL2     0.900000E-01   1.00800           0
     14815 MEMB     143      OSM      C7S      CTL2    -0.180000       12.0110           0
     14816 MEMB     143      OSM      H7S      HAL2     0.900000E-01   1.00800           0
     14817 MEMB     143      OSM      H7T      HAL2     0.900000E-01   1.00800           0
     14818 MEMB     143      OSM      C8S      CTL2    -0.180000       12.0110           0
     14819 MEMB     143      OSM      H8S      HAL2     0.900000E-01   1.00800           0
     14820 MEMB     143      OSM      H8T      HAL2     0.900000E-01   1.00800           0
     14821 MEMB     143      OSM      C9S      CTL2    -0.180000       12.0110           0
     14822 MEMB     143      OSM      H9S      HAL2     0.900000E-01   1.00800           0
     14823 MEMB     143      OSM      H9T      HAL2     0.900000E-01   1.00800           0
     14824 MEMB     143      OSM      C10S     CTL2    -0.180000       12.0110           0
     14825 MEMB     143      OSM      H10S     HAL2     0.900000E-01   1.00800           0
     14826 MEMB     143      OSM      H10T     HAL2     0.900000E-01   1.00800           0
     14827 MEMB     143      OSM      C11S     CTL2    -0.180000       12.0110           0
     14828 MEMB     143      OSM      H11S     HAL2     0.900000E-01   1.00800           0
     14829 MEMB     143      OSM      H11T     HAL2     0.900000E-01   1.00800           0
     14830 MEMB     143      OSM      C12S     CTL2    -0.180000       12.0110           0
     14831 MEMB     143      OSM      H12S     HAL2     0.900000E-01   1.00800           0
     14832 MEMB     143      OSM      H12T     HAL2     0.900000E-01   1.00800           0
     14833 MEMB     143      OSM      C13S     CTL2    -0.180000       12.0110           0
     14834 MEMB     143      OSM      H13S     HAL2     0.900000E-01   1.00800           0
     14835 MEMB     143      OSM      H13T     HAL2     0.900000E-01   1.00800           0
     14836 MEMB     143      OSM      C14S     CTL2    -0.180000       12.0110           0
     14837 MEMB     143      OSM      H14S     HAL2     0.900000E-01   1.00800           0
     14838 MEMB     143      OSM      H14T     HAL2     0.900000E-01   1.00800           0
     14839 MEMB     143      OSM      C15S     CTL2    -0.180000       12.0110           0
     14840 MEMB     143      OSM      H15S     HAL2     0.900000E-01   1.00800           0
     14841 MEMB     143      OSM      H15T     HAL2     0.900000E-01   1.00800           0
     14842 MEMB     143      OSM      C16S     CTL2    -0.180000       12.0110           0
     14843 MEMB     143      OSM      H16S     HAL2     0.900000E-01   1.00800           0
     14844 MEMB     143      OSM      H16T     HAL2     0.900000E-01   1.00800           0
     14845 MEMB     143      OSM      C17S     CTL2    -0.180000       12.0110           0
     14846 MEMB     143      OSM      H17S     HAL2     0.900000E-01   1.00800           0
     14847 MEMB     143      OSM      H17T     HAL2     0.900000E-01   1.00800           0
     14848 MEMB     143      OSM      C18S     CTL3    -0.270000       12.0110           0
     14849 MEMB     143      OSM      H18S     HAL3     0.900000E-01   1.00800           0
     14850 MEMB     143      OSM      H18T     HAL3     0.900000E-01   1.00800           0
     14851 MEMB     143      OSM      H18U     HAL3     0.900000E-01   1.00800           0
     14852 MEMB     143      OSM      C1F      C        0.550000       12.0110           0
     14853 MEMB     143      OSM      OF       O       -0.600000       15.9994           0
     14854 MEMB     143      OSM      C2F      CTL2    -0.700000E-01   12.0110           0
     14855 MEMB     143      OSM      H2F      HAL2     0.600000E-01   1.00800           0
     14856 MEMB     143      OSM      H2G      HAL2     0.600000E-01   1.00800           0
     14857 MEMB     143      OSM      C3F      CTL2    -0.180000       12.0110           0
     14858 MEMB     143      OSM      H3F      HAL2     0.900000E-01   1.00800           0
     14859 MEMB     143      OSM      H3G      HAL2     0.900000E-01   1.00800           0
     14860 MEMB     143      OSM      C4F      CTL2    -0.180000       12.0110           0
     14861 MEMB     143      OSM      H4F      HAL2     0.900000E-01   1.00800           0
     14862 MEMB     143      OSM      H4G      HAL2     0.900000E-01   1.00800           0
     14863 MEMB     143      OSM      C5F      CTL2    -0.180000       12.0110           0
     14864 MEMB     143      OSM      H5F      HAL2     0.900000E-01   1.00800           0
     14865 MEMB     143      OSM      H5G      HAL2     0.900000E-01   1.00800           0
     14866 MEMB     143      OSM      C6F      CTL2    -0.180000       12.0110           0
     14867 MEMB     143      OSM      H6F      HAL2     0.900000E-01   1.00800           0
     14868 MEMB     143      OSM      H6G      HAL2     0.900000E-01   1.00800           0
     14869 MEMB     143      OSM      C7F      CTL2    -0.180000       12.0110           0
     14870 MEMB     143      OSM      H7F      HAL2     0.900000E-01   1.00800           0
     14871 MEMB     143      OSM      H7G      HAL2     0.900000E-01   1.00800           0
     14872 MEMB     143      OSM      C8F      CTL2    -0.180000       12.0110           0
     14873 MEMB     143      OSM      H8F      HAL2     0.900000E-01   1.00800           0
     14874 MEMB     143      OSM      H8G      HAL2     0.900000E-01   1.00800           0
     14875 MEMB     143      OSM      C9F      CEL1    -0.150000       12.0110           0
     14876 MEMB     143      OSM      H9F      HEL1     0.150000       1.00800           0
     14877 MEMB     143      OSM      C10F     CEL1    -0.150000       12.0110           0
     14878 MEMB     143      OSM      H10F     HEL1     0.150000       1.00800           0
     14879 MEMB     143      OSM      C11F     CTL2    -0.180000       12.0110           0
     14880 MEMB     143      OSM      H11F     HAL2     0.900000E-01   1.00800           0
     14881 MEMB     143      OSM      H11G     HAL2     0.900000E-01   1.00800           0
     14882 MEMB     143      OSM      C12F     CTL2    -0.180000       12.0110           0
     14883 MEMB     143      OSM      H12F     HAL2     0.900000E-01   1.00800           0
     14884 MEMB     143      OSM      H12G     HAL2     0.900000E-01   1.00800           0
     14885 MEMB     143      OSM      C13F     CTL2    -0.180000       12.0110           0
     14886 MEMB     143      OSM      H13F     HAL2     0.900000E-01   1.00800           0
     14887 MEMB     143      OSM      H13G     HAL2     0.900000E-01   1.00800           0
     14888 MEMB     143      OSM      C14F     CTL2    -0.180000       12.0110           0
     14889 MEMB     143      OSM      H14F     HAL2     0.900000E-01   1.00800           0
     14890 MEMB     143      OSM      H14G     HAL2     0.900000E-01   1.00800           0
     14891 MEMB     143      OSM      C15F     CTL2    -0.180000       12.0110           0
     14892 MEMB     143      OSM      H15F     HAL2     0.900000E-01   1.00800           0
     14893 MEMB     143      OSM      H15G     HAL2     0.900000E-01   1.00800           0
     14894 MEMB     143      OSM      C16F     CTL2    -0.180000       12.0110           0
     14895 MEMB     143      OSM      H16F     HAL2     0.900000E-01   1.00800           0
     14896 MEMB     143      OSM      H16G     HAL2     0.900000E-01   1.00800           0
     14897 MEMB     143      OSM      C17F     CTL2    -0.180000       12.0110           0
     14898 MEMB     143      OSM      H17F     HAL2     0.900000E-01   1.00800           0
     14899 MEMB     143      OSM      H17G     HAL2     0.900000E-01   1.00800           0
     14900 MEMB     143      OSM      C18F     CTL3    -0.270000       12.0110           0
     14901 MEMB     143      OSM      H18F     HAL3     0.900000E-01   1.00800           0
     14902 MEMB     143      OSM      H18G     HAL3     0.900000E-01   1.00800           0
     14903 MEMB     143      OSM      H18H     HAL3     0.900000E-01   1.00800           0
     14904 MEMB     158      OSM      N        NTL     -0.600000       14.0070           0
     14905 MEMB     158      OSM      C15      CTL5    -0.350000       12.0110           0
     14906 MEMB     158      OSM      H15A     HL       0.250000       1.00800           0
     14907 MEMB     158      OSM      H15B     HL       0.250000       1.00800           0
     14908 MEMB     158      OSM      H15C     HL       0.250000       1.00800           0
     14909 MEMB     158      OSM      C14      CTL5    -0.350000       12.0110           0
     14910 MEMB     158      OSM      H14A     HL       0.250000       1.00800           0
     14911 MEMB     158      OSM      H14B     HL       0.250000       1.00800           0
     14912 MEMB     158      OSM      H14C     HL       0.250000       1.00800           0
     14913 MEMB     158      OSM      C13      CTL5    -0.350000       12.0110           0
     14914 MEMB     158      OSM      H13A     HL       0.250000       1.00800           0
     14915 MEMB     158      OSM      H13B     HL       0.250000       1.00800           0
     14916 MEMB     158      OSM      H13C     HL       0.250000       1.00800           0
     14917 MEMB     158      OSM      C12      CTL2    -0.100000       12.0110           0
     14918 MEMB     158      OSM      H12A     HL       0.250000       1.00800           0
     14919 MEMB     158      OSM      H12B     HL       0.250000       1.00800           0
     14920 MEMB     158      OSM      C11      CTL2    -0.800000E-01   12.0110           0
     14921 MEMB     158      OSM      H11A     HAL2     0.900000E-01   1.00800           0
     14922 MEMB     158      OSM      H11B     HAL2     0.900000E-01   1.00800           0
     14923 MEMB     158      OSM      P        PL       1.500000       30.9740           0
     14924 MEMB     158      OSM      O13      O2L     -0.780000       15.9994           0
     14925 MEMB     158      OSM      O14      O2L     -0.780000       15.9994           0
     14926 MEMB     158      OSM      O11      OSLP    -0.570000       15.9994           0
     14927 MEMB     158      OSM      O12      OSLP    -0.570000       15.9994           0
     14928 MEMB     158      OSM      C1S      CTL2    -0.800000E-01   12.0110           0
     14929 MEMB     158      OSM      H1S      HAL2     0.900000E-01   1.00800           0
     14930 MEMB     158      OSM      H1T      HAL2     0.900000E-01   1.00800           0
     14931 MEMB     158      OSM      NF       NHL     -0.700000       14.0070           0
     14932 MEMB     158      OSM      HNF      H        0.350000       1.00800           0
     14933 MEMB     158      OSM      C2S      CTL1     0.300000       12.0110           0
     14934 MEMB     158      OSM      H2S      HAL1     0.500000E-01   1.00800           0
     14935 MEMB     158      OSM      C3S      CTO1     0.500000       12.0110           0
     14936 MEMB     158      OSM      H3S      HAL1    -0.110000       1.00800           0
     14937 MEMB     158      OSM      O3       OHL     -0.690000       15.9994           0
     14938 MEMB     158      OSM      HO3      HOL      0.300000       1.00800           0
     14939 MEMB     158      OSM      C4S      CEL3    -0.150000       12.0110           0
     14940 MEMB     158      OSM      H4S      HEL1     0.150000       1.00800           0
     14941 MEMB     158      OSM      C5S      CEL3    -0.150000       12.0110           0
     14942 MEMB     158      OSM      H5S      HEL1     0.150000       1.00800           0
     14943 MEMB     158      OSM      C6S      CTL2    -0.180000       12.0110           0
     14944 MEMB     158      OSM      H6S      HAL2     0.900000E-01   1.00800           0
     14945 MEMB     158      OSM      H6T      HAL2     0.900000E-01   1.00800           0
     14946 MEMB     158      OSM      C7S      CTL2    -0.180000       12.0110           0
     14947 MEMB     158      OSM      H7S      HAL2     0.900000E-01   1.00800           0
     14948 MEMB     158      OSM      H7T      HAL2     0.900000E-01   1.00800           0
     14949 MEMB     158      OSM      C8S      CTL2    -0.180000       12.0110           0
     14950 MEMB     158      OSM      H8S      HAL2     0.900000E-01   1.00800           0
     14951 MEMB     158      OSM      H8T      HAL2     0.900000E-01   1.00800           0
     14952 MEMB     158      OSM      C9S      CTL2    -0.180000       12.0110           0
     14953 MEMB     158      OSM      H9S      HAL2     0.900000E-01   1.00800           0
     14954 MEMB     158      OSM      H9T      HAL2     0.900000E-01   1.00800           0
     14955 MEMB     158      OSM      C10S     CTL2    -0.180000       12.0110           0
     14956 MEMB     158      OSM      H10S     HAL2     0.900000E-01   1.00800           0
     14957 MEMB     158      OSM      H10T     HAL2     0.900000E-01   1.00800           0
     14958 MEMB     158      OSM      C11S     CTL2    -0.180000       12.0110           0
     14959 MEMB     158      OSM      H11S     HAL2     0.900000E-01   1.00800           0
     14960 MEMB     158      OSM      H11T     HAL2     0.900000E-01   1.00800           0
     14961 MEMB     158      OSM      C12S     CTL2    -0.180000       12.0110           0
     14962 MEMB     158      OSM      H12S     HAL2     0.900000E-01   1.00800           0
     14963 MEMB     158      OSM      H12T     HAL2     0.900000E-01   1.00800           0
     14964 MEMB     158      OSM      C13S     CTL2    -0.180000       12.0110           0
     14965 MEMB     158      OSM      H13S     HAL2     0.900000E-01   1.00800           0
     14966 MEMB     158      OSM      H13T     HAL2     0.900000E-01   1.00800           0
     14967 MEMB     158      OSM      C14S     CTL2    -0.180000       12.0110           0
     14968 MEMB     158      OSM      H14S     HAL2     0.900000E-01   1.00800           0
     14969 MEMB     158      OSM      H14T     HAL2     0.900000E-01   1.00800           0
     14970 MEMB     158      OSM      C15S     CTL2    -0.180000       12.0110           0
     14971 MEMB     158      OSM      H15S     HAL2     0.900000E-01   1.00800           0
     14972 MEMB     158      OSM      H15T     HAL2     0.900000E-01   1.00800           0
     14973 MEMB     158      OSM      C16S     CTL2    -0.180000       12.0110           0
     14974 MEMB     158      OSM      H16S     HAL2     0.900000E-01   1.00800           0
     14975 MEMB     158      OSM      H16T     HAL2     0.900000E-01   1.00800           0
     14976 MEMB     158      OSM      C17S     CTL2    -0.180000       12.0110           0
     14977 MEMB     158      OSM      H17S     HAL2     0.900000E-01   1.00800           0
     14978 MEMB     158      OSM      H17T     HAL2     0.900000E-01   1.00800           0
     14979 MEMB     158      OSM      C18S     CTL3    -0.270000       12.0110           0
     14980 MEMB     158      OSM      H18S     HAL3     0.900000E-01   1.00800           0
     14981 MEMB     158      OSM      H18T     HAL3     0.900000E-01   1.00800           0
     14982 MEMB     158      OSM      H18U     HAL3     0.900000E-01   1.00800           0
     14983 MEMB     158      OSM      C1F      C        0.550000       12.0110           0
     14984 MEMB     158      OSM      OF       O       -0.600000       15.9994           0
     14985 MEMB     158      OSM      C2F      CTL2    -0.700000E-01   12.0110           0
     14986 MEMB     158      OSM      H2F      HAL2     0.600000E-01   1.00800           0
     14987 MEMB     158      OSM      H2G      HAL2     0.600000E-01   1.00800           0
     14988 MEMB     158      OSM      C3F      CTL2    -0.180000       12.0110           0
     14989 MEMB     158      OSM      H3F      HAL2     0.900000E-01   1.00800           0
     14990 MEMB     158      OSM      H3G      HAL2     0.900000E-01   1.00800           0
     14991 MEMB     158      OSM      C4F      CTL2    -0.180000       12.0110           0
     14992 MEMB     158      OSM      H4F      HAL2     0.900000E-01   1.00800           0
     14993 MEMB     158      OSM      H4G      HAL2     0.900000E-01   1.00800           0
     14994 MEMB     158      OSM      C5F      CTL2    -0.180000       12.0110           0
     14995 MEMB     158      OSM      H5F      HAL2     0.900000E-01   1.00800           0
     14996 MEMB     158      OSM      H5G      HAL2     0.900000E-01   1.00800           0
     14997 MEMB     158      OSM      C6F      CTL2    -0.180000       12.0110           0
     14998 MEMB     158      OSM      H6F      HAL2     0.900000E-01   1.00800           0
     14999 MEMB     158      OSM      H6G      HAL2     0.900000E-01   1.00800           0
     15000 MEMB     158      OSM      C7F      CTL2    -0.180000       12.0110           0
     15001 MEMB     158      OSM      H7F      HAL2     0.900000E-01   1.00800           0
     15002 MEMB     158      OSM      H7G      HAL2     0.900000E-01   1.00800           0
     15003 MEMB     158      OSM      C8F      CTL2    -0.180000       12.0110           0
     15004 MEMB     158      OSM      H8F      HAL2     0.900000E-01   1.00800           0
     15005 MEMB     158      OSM      H8G      HAL2     0.900000E-01   1.00800           0
     15006 MEMB     158      OSM      C9F      CEL1    -0.150000       12.0110           0
     15007 MEMB     158      OSM      H9F      HEL1     0.150000       1.00800           0
     15008 MEMB     158      OSM      C10F     CEL1    -0.150000       12.0110           0
     15009 MEMB     158      OSM      H10F     HEL1     0.150000       1.00800           0
     15010 MEMB     158      OSM      C11F     CTL2    -0.180000       12.0110           0
     15011 MEMB     158      OSM      H11F     HAL2     0.900000E-01   1.00800           0
     15012 MEMB     158      OSM      H11G     HAL2     0.900000E-01   1.00800           0
     15013 MEMB     158      OSM      C12F     CTL2    -0.180000       12.0110           0
     15014 MEMB     158      OSM      H12F     HAL2     0.900000E-01   1.00800           0
     15015 MEMB     158      OSM      H12G     HAL2     0.900000E-01   1.00800           0
     15016 MEMB     158      OSM      C13F     CTL2    -0.180000       12.0110           0
     15017 MEMB     158      OSM      H13F     HAL2     0.900000E-01   1.00800           0
     15018 MEMB     158      OSM      H13G     HAL2     0.900000E-01   1.00800           0
     15019 MEMB     158      OSM      C14F     CTL2    -0.180000       12.0110           0
     15020 MEMB     158      OSM      H14F     HAL2     0.900000E-01   1.00800           0
     15021 MEMB     158      OSM      H14G     HAL2     0.900000E-01   1.00800           0
     15022 MEMB     158      OSM      C15F     CTL2    -0.180000       12.0110           0
     15023 MEMB     158      OSM      H15F     HAL2     0.900000E-01   1.00800           0
     15024 MEMB     158      OSM      H15G     HAL2     0.900000E-01   1.00800           0
     15025 MEMB     158      OSM      C16F     CTL2    -0.180000       12.0110           0
     15026 MEMB     158      OSM      H16F     HAL2     0.900000E-01   1.00800           0
     15027 MEMB     158      OSM      H16G     HAL2     0.900000E-01   1.00800           0
     15028 MEMB     158      OSM      C17F     CTL2    -0.180000       12.0110           0
     15029 MEMB     158      OSM      H17F     HAL2     0.900000E-01   1.00800           0
     15030 MEMB     158      OSM      H17G     HAL2     0.900000E-01   1.00800           0
     15031 MEMB     158      OSM      C18F     CTL3    -0.270000       12.0110           0
     15032 MEMB     158      OSM      H18F     HAL3     0.900000E-01   1.00800           0
     15033 MEMB     158      OSM      H18G     HAL3     0.900000E-01   1.00800           0
     15034 MEMB     158      OSM      H18H     HAL3     0.900000E-01   1.00800           0
     15035 MEMB     159      OSM      N        NTL     -0.600000       14.0070           0
     15036 MEMB     159      OSM      C15      CTL5    -0.350000       12.0110           0
     15037 MEMB     159      OSM      H15A     HL       0.250000       1.00800           0
     15038 MEMB     159      OSM      H15B     HL       0.250000       1.00800           0
     15039 MEMB     159      OSM      H15C     HL       0.250000       1.00800           0
     15040 MEMB     159      OSM      C14      CTL5    -0.350000       12.0110           0
     15041 MEMB     159      OSM      H14A     HL       0.250000       1.00800           0
     15042 MEMB     159      OSM      H14B     HL       0.250000       1.00800           0
     15043 MEMB     159      OSM      H14C     HL       0.250000       1.00800           0
     15044 MEMB     159      OSM      C13      CTL5    -0.350000       12.0110           0
     15045 MEMB     159      OSM      H13A     HL       0.250000       1.00800           0
     15046 MEMB     159      OSM      H13B     HL       0.250000       1.00800           0
     15047 MEMB     159      OSM      H13C     HL       0.250000       1.00800           0
     15048 MEMB     159      OSM      C12      CTL2    -0.100000       12.0110           0
     15049 MEMB     159      OSM      H12A     HL       0.250000       1.00800           0
     15050 MEMB     159      OSM      H12B     HL       0.250000       1.00800           0
     15051 MEMB     159      OSM      C11      CTL2    -0.800000E-01   12.0110           0
     15052 MEMB     159      OSM      H11A     HAL2     0.900000E-01   1.00800           0
     15053 MEMB     159      OSM      H11B     HAL2     0.900000E-01   1.00800           0
     15054 MEMB     159      OSM      P        PL       1.500000       30.9740           0
     15055 MEMB     159      OSM      O13      O2L     -0.780000       15.9994           0
     15056 MEMB     159      OSM      O14      O2L     -0.780000       15.9994           0
     15057 MEMB     159      OSM      O11      OSLP    -0.570000       15.9994           0
     15058 MEMB     159      OSM      O12      OSLP    -0.570000       15.9994           0
     15059 MEMB     159      OSM      C1S      CTL2    -0.800000E-01   12.0110           0
     15060 MEMB     159      OSM      H1S      HAL2     0.900000E-01   1.00800           0
     15061 MEMB     159      OSM      H1T      HAL2     0.900000E-01   1.00800           0
     15062 MEMB     159      OSM      NF       NHL     -0.700000       14.0070           0
     15063 MEMB     159      OSM      HNF      H        0.350000       1.00800           0
     15064 MEMB     159      OSM      C2S      CTL1     0.300000       12.0110           0
     15065 MEMB     159      OSM      H2S      HAL1     0.500000E-01   1.00800           0
     15066 MEMB     159      OSM      C3S      CTO1     0.500000       12.0110           0
     15067 MEMB     159      OSM      H3S      HAL1    -0.110000       1.00800           0
     15068 MEMB     159      OSM      O3       OHL     -0.690000       15.9994           0
     15069 MEMB     159      OSM      HO3      HOL      0.300000       1.00800           0
     15070 MEMB     159      OSM      C4S      CEL3    -0.150000       12.0110           0
     15071 MEMB     159      OSM      H4S      HEL1     0.150000       1.00800           0
     15072 MEMB     159      OSM      C5S      CEL3    -0.150000       12.0110           0
     15073 MEMB     159      OSM      H5S      HEL1     0.150000       1.00800           0
     15074 MEMB     159      OSM      C6S      CTL2    -0.180000       12.0110           0
     15075 MEMB     159      OSM      H6S      HAL2     0.900000E-01   1.00800           0
     15076 MEMB     159      OSM      H6T      HAL2     0.900000E-01   1.00800           0
     15077 MEMB     159      OSM      C7S      CTL2    -0.180000       12.0110           0
     15078 MEMB     159      OSM      H7S      HAL2     0.900000E-01   1.00800           0
     15079 MEMB     159      OSM      H7T      HAL2     0.900000E-01   1.00800           0
     15080 MEMB     159      OSM      C8S      CTL2    -0.180000       12.0110           0
     15081 MEMB     159      OSM      H8S      HAL2     0.900000E-01   1.00800           0
     15082 MEMB     159      OSM      H8T      HAL2     0.900000E-01   1.00800           0
     15083 MEMB     159      OSM      C9S      CTL2    -0.180000       12.0110           0
     15084 MEMB     159      OSM      H9S      HAL2     0.900000E-01   1.00800           0
     15085 MEMB     159      OSM      H9T      HAL2     0.900000E-01   1.00800           0
     15086 MEMB     159      OSM      C10S     CTL2    -0.180000       12.0110           0
     15087 MEMB     159      OSM      H10S     HAL2     0.900000E-01   1.00800           0
     15088 MEMB     159      OSM      H10T     HAL2     0.900000E-01   1.00800           0
     15089 MEMB     159      OSM      C11S     CTL2    -0.180000       12.0110           0
     15090 MEMB     159      OSM      H11S     HAL2     0.900000E-01   1.00800           0
     15091 MEMB     159      OSM      H11T     HAL2     0.900000E-01   1.00800           0
     15092 MEMB     159      OSM      C12S     CTL2    -0.180000       12.0110           0
     15093 MEMB     159      OSM      H12S     HAL2     0.900000E-01   1.00800           0
     15094 MEMB     159      OSM      H12T     HAL2     0.900000E-01   1.00800           0
     15095 MEMB     159      OSM      C13S     CTL2    -0.180000       12.0110           0
     15096 MEMB     159      OSM      H13S     HAL2     0.900000E-01   1.00800           0
     15097 MEMB     159      OSM      H13T     HAL2     0.900000E-01   1.00800           0
     15098 MEMB     159      OSM      C14S     CTL2    -0.180000       12.0110           0
     15099 MEMB     159      OSM      H14S     HAL2     0.900000E-01   1.00800           0
     15100 MEMB     159      OSM      H14T     HAL2     0.900000E-01   1.00800           0
     15101 MEMB     159      OSM      C15S     CTL2    -0.180000       12.0110           0
     15102 MEMB     159      OSM      H15S     HAL2     0.900000E-01   1.00800           0
     15103 MEMB     159      OSM      H15T     HAL2     0.900000E-01   1.00800           0
     15104 MEMB     159      OSM      C16S     CTL2    -0.180000       12.0110           0
     15105 MEMB     159      OSM      H16S     HAL2     0.900000E-01   1.00800           0
     15106 MEMB     159      OSM      H16T     HAL2     0.900000E-01   1.00800           0
     15107 MEMB     159      OSM      C17S     CTL2    -0.180000       12.0110           0
     15108 MEMB     159      OSM      H17S     HAL2     0.900000E-01   1.00800           0
     15109 MEMB     159      OSM      H17T     HAL2     0.900000E-01   1.00800           0
     15110 MEMB     159      OSM      C18S     CTL3    -0.270000       12.0110           0
     15111 MEMB     159      OSM      H18S     HAL3     0.900000E-01   1.00800           0
     15112 MEMB     159      OSM      H18T     HAL3     0.900000E-01   1.00800           0
     15113 MEMB     159      OSM      H18U     HAL3     0.900000E-01   1.00800           0
     15114 MEMB     159      OSM      C1F      C        0.550000       12.0110           0
     15115 MEMB     159      OSM      OF       O       -0.600000       15.9994           0
     15116 MEMB     159      OSM      C2F      CTL2    -0.700000E-01   12.0110           0
     15117 MEMB     159      OSM      H2F      HAL2     0.600000E-01   1.00800           0
     15118 MEMB     159      OSM      H2G      HAL2     0.600000E-01   1.00800           0
     15119 MEMB     159      OSM      C3F      CTL2    -0.180000       12.0110           0
     15120 MEMB     159      OSM      H3F      HAL2     0.900000E-01   1.00800           0
     15121 MEMB     159      OSM      H3G      HAL2     0.900000E-01   1.00800           0
     15122 MEMB     159      OSM      C4F      CTL2    -0.180000       12.0110           0
     15123 MEMB     159      OSM      H4F      HAL2     0.900000E-01   1.00800           0
     15124 MEMB     159      OSM      H4G      HAL2     0.900000E-01   1.00800           0
     15125 MEMB     159      OSM      C5F      CTL2    -0.180000       12.0110           0
     15126 MEMB     159      OSM      H5F      HAL2     0.900000E-01   1.00800           0
     15127 MEMB     159      OSM      H5G      HAL2     0.900000E-01   1.00800           0
     15128 MEMB     159      OSM      C6F      CTL2    -0.180000       12.0110           0
     15129 MEMB     159      OSM      H6F      HAL2     0.900000E-01   1.00800           0
     15130 MEMB     159      OSM      H6G      HAL2     0.900000E-01   1.00800           0
     15131 MEMB     159      OSM      C7F      CTL2    -0.180000       12.0110           0
     15132 MEMB     159      OSM      H7F      HAL2     0.900000E-01   1.00800           0
     15133 MEMB     159      OSM      H7G      HAL2     0.900000E-01   1.00800           0
     15134 MEMB     159      OSM      C8F      CTL2    -0.180000       12.0110           0
     15135 MEMB     159      OSM      H8F      HAL2     0.900000E-01   1.00800           0
     15136 MEMB     159      OSM      H8G      HAL2     0.900000E-01   1.00800           0
     15137 MEMB     159      OSM      C9F      CEL1    -0.150000       12.0110           0
     15138 MEMB     159      OSM      H9F      HEL1     0.150000       1.00800           0
     15139 MEMB     159      OSM      C10F     CEL1    -0.150000       12.0110           0
     15140 MEMB     159      OSM      H10F     HEL1     0.150000       1.00800           0
     15141 MEMB     159      OSM      C11F     CTL2    -0.180000       12.0110           0
     15142 MEMB     159      OSM      H11F     HAL2     0.900000E-01   1.00800           0
     15143 MEMB     159      OSM      H11G     HAL2     0.900000E-01   1.00800           0
     15144 MEMB     159      OSM      C12F     CTL2    -0.180000       12.0110           0
     15145 MEMB     159      OSM      H12F     HAL2     0.900000E-01   1.00800           0
     15146 MEMB     159      OSM      H12G     HAL2     0.900000E-01   1.00800           0
     15147 MEMB     159      OSM      C13F     CTL2    -0.180000       12.0110           0
     15148 MEMB     159      OSM      H13F     HAL2     0.900000E-01   1.00800           0
     15149 MEMB     159      OSM      H13G     HAL2     0.900000E-01   1.00800           0
     15150 MEMB     159      OSM      C14F     CTL2    -0.180000       12.0110           0
     15151 MEMB     159      OSM      H14F     HAL2     0.900000E-01   1.00800           0
     15152 MEMB     159      OSM      H14G     HAL2     0.900000E-01   1.00800           0
     15153 MEMB     159      OSM      C15F     CTL2    -0.180000       12.0110           0
     15154 MEMB     159      OSM      H15F     HAL2     0.900000E-01   1.00800           0
     15155 MEMB     159      OSM      H15G     HAL2     0.900000E-01   1.00800           0
     15156 MEMB     159      OSM      C16F     CTL2    -0.180000       12.0110           0
     15157 MEMB     159      OSM      H16F     HAL2     0.900000E-01   1.00800           0
     15158 MEMB     159      OSM      H16G     HAL2     0.900000E-01   1.00800           0
     15159 MEMB     159      OSM      C17F     CTL2    -0.180000       12.0110           0
     15160 MEMB     159      OSM      H17F     HAL2     0.900000E-01   1.00800           0
     15161 MEMB     159      OSM      H17G     HAL2     0.900000E-01   1.00800           0
     15162 MEMB     159      OSM      C18F     CTL3    -0.270000       12.0110           0
     15163 MEMB     159      OSM      H18F     HAL3     0.900000E-01   1.00800           0
     15164 MEMB     159      OSM      H18G     HAL3     0.900000E-01   1.00800           0
     15165 MEMB     159      OSM      H18H     HAL3     0.900000E-01   1.00800           0
     15166 MEMB     167      OSM      N        NTL     -0.600000       14.0070           0
     15167 MEMB     167      OSM      C15      CTL5    -0.350000       12.0110           0
     15168 MEMB     167      OSM      H15A     HL       0.250000       1.00800           0
     15169 MEMB     167      OSM      H15B     HL       0.250000       1.00800           0
     15170 MEMB     167      OSM      H15C     HL       0.250000       1.00800           0
     15171 MEMB     167      OSM      C14      CTL5    -0.350000       12.0110           0
     15172 MEMB     167      OSM      H14A     HL       0.250000       1.00800           0
     15173 MEMB     167      OSM      H14B     HL       0.250000       1.00800           0
     15174 MEMB     167      OSM      H14C     HL       0.250000       1.00800           0
     15175 MEMB     167      OSM      C13      CTL5    -0.350000       12.0110           0
     15176 MEMB     167      OSM      H13A     HL       0.250000       1.00800           0
     15177 MEMB     167      OSM      H13B     HL       0.250000       1.00800           0
     15178 MEMB     167      OSM      H13C     HL       0.250000       1.00800           0
     15179 MEMB     167      OSM      C12      CTL2    -0.100000       12.0110           0
     15180 MEMB     167      OSM      H12A     HL       0.250000       1.00800           0
     15181 MEMB     167      OSM      H12B     HL       0.250000       1.00800           0
     15182 MEMB     167      OSM      C11      CTL2    -0.800000E-01   12.0110           0
     15183 MEMB     167      OSM      H11A     HAL2     0.900000E-01   1.00800           0
     15184 MEMB     167      OSM      H11B     HAL2     0.900000E-01   1.00800           0
     15185 MEMB     167      OSM      P        PL       1.500000       30.9740           0
     15186 MEMB     167      OSM      O13      O2L     -0.780000       15.9994           0
     15187 MEMB     167      OSM      O14      O2L     -0.780000       15.9994           0
     15188 MEMB     167      OSM      O11      OSLP    -0.570000       15.9994           0
     15189 MEMB     167      OSM      O12      OSLP    -0.570000       15.9994           0
     15190 MEMB     167      OSM      C1S      CTL2    -0.800000E-01   12.0110           0
     15191 MEMB     167      OSM      H1S      HAL2     0.900000E-01   1.00800           0
     15192 MEMB     167      OSM      H1T      HAL2     0.900000E-01   1.00800           0
     15193 MEMB     167      OSM      NF       NHL     -0.700000       14.0070           0
     15194 MEMB     167      OSM      HNF      H        0.350000       1.00800           0
     15195 MEMB     167      OSM      C2S      CTL1     0.300000       12.0110           0
     15196 MEMB     167      OSM      H2S      HAL1     0.500000E-01   1.00800           0
     15197 MEMB     167      OSM      C3S      CTO1     0.500000       12.0110           0
     15198 MEMB     167      OSM      H3S      HAL1    -0.110000       1.00800           0
     15199 MEMB     167      OSM      O3       OHL     -0.690000       15.9994           0
     15200 MEMB     167      OSM      HO3      HOL      0.300000       1.00800           0
     15201 MEMB     167      OSM      C4S      CEL3    -0.150000       12.0110           0
     15202 MEMB     167      OSM      H4S      HEL1     0.150000       1.00800           0
     15203 MEMB     167      OSM      C5S      CEL3    -0.150000       12.0110           0
     15204 MEMB     167      OSM      H5S      HEL1     0.150000       1.00800           0
     15205 MEMB     167      OSM      C6S      CTL2    -0.180000       12.0110           0
     15206 MEMB     167      OSM      H6S      HAL2     0.900000E-01   1.00800           0
     15207 MEMB     167      OSM      H6T      HAL2     0.900000E-01   1.00800           0
     15208 MEMB     167      OSM      C7S      CTL2    -0.180000       12.0110           0
     15209 MEMB     167      OSM      H7S      HAL2     0.900000E-01   1.00800           0
     15210 MEMB     167      OSM      H7T      HAL2     0.900000E-01   1.00800           0
     15211 MEMB     167      OSM      C8S      CTL2    -0.180000       12.0110           0
     15212 MEMB     167      OSM      H8S      HAL2     0.900000E-01   1.00800           0
     15213 MEMB     167      OSM      H8T      HAL2     0.900000E-01   1.00800           0
     15214 MEMB     167      OSM      C9S      CTL2    -0.180000       12.0110           0
     15215 MEMB     167      OSM      H9S      HAL2     0.900000E-01   1.00800           0
     15216 MEMB     167      OSM      H9T      HAL2     0.900000E-01   1.00800           0
     15217 MEMB     167      OSM      C10S     CTL2    -0.180000       12.0110           0
     15218 MEMB     167      OSM      H10S     HAL2     0.900000E-01   1.00800           0
     15219 MEMB     167      OSM      H10T     HAL2     0.900000E-01   1.00800           0
     15220 MEMB     167      OSM      C11S     CTL2    -0.180000       12.0110           0
     15221 MEMB     167      OSM      H11S     HAL2     0.900000E-01   1.00800           0
     15222 MEMB     167      OSM      H11T     HAL2     0.900000E-01   1.00800           0
     15223 MEMB     167      OSM      C12S     CTL2    -0.180000       12.0110           0
     15224 MEMB     167      OSM      H12S     HAL2     0.900000E-01   1.00800           0
     15225 MEMB     167      OSM      H12T     HAL2     0.900000E-01   1.00800           0
     15226 MEMB     167      OSM      C13S     CTL2    -0.180000       12.0110           0
     15227 MEMB     167      OSM      H13S     HAL2     0.900000E-01   1.00800           0
     15228 MEMB     167      OSM      H13T     HAL2     0.900000E-01   1.00800           0
     15229 MEMB     167      OSM      C14S     CTL2    -0.180000       12.0110           0
     15230 MEMB     167      OSM      H14S     HAL2     0.900000E-01   1.00800           0
     15231 MEMB     167      OSM      H14T     HAL2     0.900000E-01   1.00800           0
     15232 MEMB     167      OSM      C15S     CTL2    -0.180000       12.0110           0
     15233 MEMB     167      OSM      H15S     HAL2     0.900000E-01   1.00800           0
     15234 MEMB     167      OSM      H15T     HAL2     0.900000E-01   1.00800           0
     15235 MEMB     167      OSM      C16S     CTL2    -0.180000       12.0110           0
     15236 MEMB     167      OSM      H16S     HAL2     0.900000E-01   1.00800           0
     15237 MEMB     167      OSM      H16T     HAL2     0.900000E-01   1.00800           0
     15238 MEMB     167      OSM      C17S     CTL2    -0.180000       12.0110           0
     15239 MEMB     167      OSM      H17S     HAL2     0.900000E-01   1.00800           0
     15240 MEMB     167      OSM      H17T     HAL2     0.900000E-01   1.00800           0
     15241 MEMB     167      OSM      C18S     CTL3    -0.270000       12.0110           0
     15242 MEMB     167      OSM      H18S     HAL3     0.900000E-01   1.00800           0
     15243 MEMB     167      OSM      H18T     HAL3     0.900000E-01   1.00800           0
     15244 MEMB     167      OSM      H18U     HAL3     0.900000E-01   1.00800           0
     15245 MEMB     167      OSM      C1F      C        0.550000       12.0110           0
     15246 MEMB     167      OSM      OF       O       -0.600000       15.9994           0
     15247 MEMB     167      OSM      C2F      CTL2    -0.700000E-01   12.0110           0
     15248 MEMB     167      OSM      H2F      HAL2     0.600000E-01   1.00800           0
     15249 MEMB     167      OSM      H2G      HAL2     0.600000E-01   1.00800           0
     15250 MEMB     167      OSM      C3F      CTL2    -0.180000       12.0110           0
     15251 MEMB     167      OSM      H3F      HAL2     0.900000E-01   1.00800           0
     15252 MEMB     167      OSM      H3G      HAL2     0.900000E-01   1.00800           0
     15253 MEMB     167      OSM      C4F      CTL2    -0.180000       12.0110           0
     15254 MEMB     167      OSM      H4F      HAL2     0.900000E-01   1.00800           0
     15255 MEMB     167      OSM      H4G      HAL2     0.900000E-01   1.00800           0
     15256 MEMB     167      OSM      C5F      CTL2    -0.180000       12.0110           0
     15257 MEMB     167      OSM      H5F      HAL2     0.900000E-01   1.00800           0
     15258 MEMB     167      OSM      H5G      HAL2     0.900000E-01   1.00800           0
     15259 MEMB     167      OSM      C6F      CTL2    -0.180000       12.0110           0
     15260 MEMB     167      OSM      H6F      HAL2     0.900000E-01   1.00800           0
     15261 MEMB     167      OSM      H6G      HAL2     0.900000E-01   1.00800           0
     15262 MEMB     167      OSM      C7F      CTL2    -0.180000       12.0110           0
     15263 MEMB     167      OSM      H7F      HAL2     0.900000E-01   1.00800           0
     15264 MEMB     167      OSM      H7G      HAL2     0.900000E-01   1.00800           0
     15265 MEMB     167      OSM      C8F      CTL2    -0.180000       12.0110           0
     15266 MEMB     167      OSM      H8F      HAL2     0.900000E-01   1.00800           0
     15267 MEMB     167      OSM      H8G      HAL2     0.900000E-01   1.00800           0
     15268 MEMB     167      OSM      C9F      CEL1    -0.150000       12.0110           0
     15269 MEMB     167      OSM      H9F      HEL1     0.150000       1.00800           0
     15270 MEMB     167      OSM      C10F     CEL1    -0.150000       12.0110           0
     15271 MEMB     167      OSM      H10F     HEL1     0.150000       1.00800           0
     15272 MEMB     167      OSM      C11F     CTL2    -0.180000       12.0110           0
     15273 MEMB     167      OSM      H11F     HAL2     0.900000E-01   1.00800           0
     15274 MEMB     167      OSM      H11G     HAL2     0.900000E-01   1.00800           0
     15275 MEMB     167      OSM      C12F     CTL2    -0.180000       12.0110           0
     15276 MEMB     167      OSM      H12F     HAL2     0.900000E-01   1.00800           0
     15277 MEMB     167      OSM      H12G     HAL2     0.900000E-01   1.00800           0
     15278 MEMB     167      OSM      C13F     CTL2    -0.180000       12.0110           0
     15279 MEMB     167      OSM      H13F     HAL2     0.900000E-01   1.00800           0
     15280 MEMB     167      OSM      H13G     HAL2     0.900000E-01   1.00800           0
     15281 MEMB     167      OSM      C14F     CTL2    -0.180000       12.0110           0
     15282 MEMB     167      OSM      H14F     HAL2     0.900000E-01   1.00800           0
     15283 MEMB     167      OSM      H14G     HAL2     0.900000E-01   1.00800           0
     15284 MEMB     167      OSM      C15F     CTL2    -0.180000       12.0110           0
     15285 MEMB     167      OSM      H15F     HAL2     0.900000E-01   1.00800           0
     15286 MEMB     167      OSM      H15G     HAL2     0.900000E-01   1.00800           0
     15287 MEMB     167      OSM      C16F     CTL2    -0.180000       12.0110           0
     15288 MEMB     167      OSM      H16F     HAL2     0.900000E-01   1.00800           0
     15289 MEMB     167      OSM      H16G     HAL2     0.900000E-01   1.00800           0
     15290 MEMB     167      OSM      C17F     CTL2    -0.180000       12.0110           0
     15291 MEMB     167      OSM      H17F     HAL2     0.900000E-01   1.00800           0
     15292 MEMB     167      OSM      H17G     HAL2     0.900000E-01   1.00800           0
     15293 MEMB     167      OSM      C18F     CTL3    -0.270000       12.0110           0
     15294 MEMB     167      OSM      H18F     HAL3     0.900000E-01   1.00800           0
     15295 MEMB     167      OSM      H18G     HAL3     0.900000E-01   1.00800           0
     15296 MEMB     167      OSM      H18H     HAL3     0.900000E-01   1.00800           0
     15297 MEMB     184      OSM      N        NTL     -0.600000       14.0070           0
     15298 MEMB     184      OSM      C15      CTL5    -0.350000       12.0110           0
     15299 MEMB     184      OSM      H15A     HL       0.250000       1.00800           0
     15300 MEMB     184      OSM      H15B     HL       0.250000       1.00800           0
     15301 MEMB     184      OSM      H15C     HL       0.250000       1.00800           0
     15302 MEMB     184      OSM      C14      CTL5    -0.350000       12.0110           0
     15303 MEMB     184      OSM      H14A     HL       0.250000       1.00800           0
     15304 MEMB     184      OSM      H14B     HL       0.250000       1.00800           0
     15305 MEMB     184      OSM      H14C     HL       0.250000       1.00800           0
     15306 MEMB     184      OSM      C13      CTL5    -0.350000       12.0110           0
     15307 MEMB     184      OSM      H13A     HL       0.250000       1.00800           0
     15308 MEMB     184      OSM      H13B     HL       0.250000       1.00800           0
     15309 MEMB     184      OSM      H13C     HL       0.250000       1.00800           0
     15310 MEMB     184      OSM      C12      CTL2    -0.100000       12.0110           0
     15311 MEMB     184      OSM      H12A     HL       0.250000       1.00800           0
     15312 MEMB     184      OSM      H12B     HL       0.250000       1.00800           0
     15313 MEMB     184      OSM      C11      CTL2    -0.800000E-01   12.0110           0
     15314 MEMB     184      OSM      H11A     HAL2     0.900000E-01   1.00800           0
     15315 MEMB     184      OSM      H11B     HAL2     0.900000E-01   1.00800           0
     15316 MEMB     184      OSM      P        PL       1.500000       30.9740           0
     15317 MEMB     184      OSM      O13      O2L     -0.780000       15.9994           0
     15318 MEMB     184      OSM      O14      O2L     -0.780000       15.9994           0
     15319 MEMB     184      OSM      O11      OSLP    -0.570000       15.9994           0
     15320 MEMB     184      OSM      O12      OSLP    -0.570000       15.9994           0
     15321 MEMB     184      OSM      C1S      CTL2    -0.800000E-01   12.0110           0
     15322 MEMB     184      OSM      H1S      HAL2     0.900000E-01   1.00800           0
     15323 MEMB     184      OSM      H1T      HAL2     0.900000E-01   1.00800           0
     15324 MEMB     184      OSM      NF       NHL     -0.700000       14.0070           0
     15325 MEMB     184      OSM      HNF      H        0.350000       1.00800           0
     15326 MEMB     184      OSM      C2S      CTL1     0.300000       12.0110           0
     15327 MEMB     184      OSM      H2S      HAL1     0.500000E-01   1.00800           0
     15328 MEMB     184      OSM      C3S      CTO1     0.500000       12.0110           0
     15329 MEMB     184      OSM      H3S      HAL1    -0.110000       1.00800           0
     15330 MEMB     184      OSM      O3       OHL     -0.690000       15.9994           0
     15331 MEMB     184      OSM      HO3      HOL      0.300000       1.00800           0
     15332 MEMB     184      OSM      C4S      CEL3    -0.150000       12.0110           0
     15333 MEMB     184      OSM      H4S      HEL1     0.150000       1.00800           0
     15334 MEMB     184      OSM      C5S      CEL3    -0.150000       12.0110           0
     15335 MEMB     184      OSM      H5S      HEL1     0.150000       1.00800           0
     15336 MEMB     184      OSM      C6S      CTL2    -0.180000       12.0110           0
     15337 MEMB     184      OSM      H6S      HAL2     0.900000E-01   1.00800           0
     15338 MEMB     184      OSM      H6T      HAL2     0.900000E-01   1.00800           0
     15339 MEMB     184      OSM      C7S      CTL2    -0.180000       12.0110           0
     15340 MEMB     184      OSM      H7S      HAL2     0.900000E-01   1.00800           0
     15341 MEMB     184      OSM      H7T      HAL2     0.900000E-01   1.00800           0
     15342 MEMB     184      OSM      C8S      CTL2    -0.180000       12.0110           0
     15343 MEMB     184      OSM      H8S      HAL2     0.900000E-01   1.00800           0
     15344 MEMB     184      OSM      H8T      HAL2     0.900000E-01   1.00800           0
     15345 MEMB     184      OSM      C9S      CTL2    -0.180000       12.0110           0
     15346 MEMB     184      OSM      H9S      HAL2     0.900000E-01   1.00800           0
     15347 MEMB     184      OSM      H9T      HAL2     0.900000E-01   1.00800           0
     15348 MEMB     184      OSM      C10S     CTL2    -0.180000       12.0110           0
     15349 MEMB     184      OSM      H10S     HAL2     0.900000E-01   1.00800           0
     15350 MEMB     184      OSM      H10T     HAL2     0.900000E-01   1.00800           0
     15351 MEMB     184      OSM      C11S     CTL2    -0.180000       12.0110           0
     15352 MEMB     184      OSM      H11S     HAL2     0.900000E-01   1.00800           0
     15353 MEMB     184      OSM      H11T     HAL2     0.900000E-01   1.00800           0
     15354 MEMB     184      OSM      C12S     CTL2    -0.180000       12.0110           0
     15355 MEMB     184      OSM      H12S     HAL2     0.900000E-01   1.00800           0
     15356 MEMB     184      OSM      H12T     HAL2     0.900000E-01   1.00800           0
     15357 MEMB     184      OSM      C13S     CTL2    -0.180000       12.0110           0
     15358 MEMB     184      OSM      H13S     HAL2     0.900000E-01   1.00800           0
     15359 MEMB     184      OSM      H13T     HAL2     0.900000E-01   1.00800           0
     15360 MEMB     184      OSM      C14S     CTL2    -0.180000       12.0110           0
     15361 MEMB     184      OSM      H14S     HAL2     0.900000E-01   1.00800           0
     15362 MEMB     184      OSM      H14T     HAL2     0.900000E-01   1.00800           0
     15363 MEMB     184      OSM      C15S     CTL2    -0.180000       12.0110           0
     15364 MEMB     184      OSM      H15S     HAL2     0.900000E-01   1.00800           0
     15365 MEMB     184      OSM      H15T     HAL2     0.900000E-01   1.00800           0
     15366 MEMB     184      OSM      C16S     CTL2    -0.180000       12.0110           0
     15367 MEMB     184      OSM      H16S     HAL2     0.900000E-01   1.00800           0
     15368 MEMB     184      OSM      H16T     HAL2     0.900000E-01   1.00800           0
     15369 MEMB     184      OSM      C17S     CTL2    -0.180000       12.0110           0
     15370 MEMB     184      OSM      H17S     HAL2     0.900000E-01   1.00800           0
     15371 MEMB     184      OSM      H17T     HAL2     0.900000E-01   1.00800           0
     15372 MEMB     184      OSM      C18S     CTL3    -0.270000       12.0110           0
     15373 MEMB     184      OSM      H18S     HAL3     0.900000E-01   1.00800           0
     15374 MEMB     184      OSM      H18T     HAL3     0.900000E-01   1.00800           0
     15375 MEMB     184      OSM      H18U     HAL3     0.900000E-01   1.00800           0
     15376 MEMB     184      OSM      C1F      C        0.550000       12.0110           0
     15377 MEMB     184      OSM      OF       O       -0.600000       15.9994           0
     15378 MEMB     184      OSM      C2F      CTL2    -0.700000E-01   12.0110           0
     15379 MEMB     184      OSM      H2F      HAL2     0.600000E-01   1.00800           0
     15380 MEMB     184      OSM      H2G      HAL2     0.600000E-01   1.00800           0
     15381 MEMB     184      OSM      C3F      CTL2    -0.180000       12.0110           0
     15382 MEMB     184      OSM      H3F      HAL2     0.900000E-01   1.00800           0
     15383 MEMB     184      OSM      H3G      HAL2     0.900000E-01   1.00800           0
     15384 MEMB     184      OSM      C4F      CTL2    -0.180000       12.0110           0
     15385 MEMB     184      OSM      H4F      HAL2     0.900000E-01   1.00800           0
     15386 MEMB     184      OSM      H4G      HAL2     0.900000E-01   1.00800           0
     15387 MEMB     184      OSM      C5F      CTL2    -0.180000       12.0110           0
     15388 MEMB     184      OSM      H5F      HAL2     0.900000E-01   1.00800           0
     15389 MEMB     184      OSM      H5G      HAL2     0.900000E-01   1.00800           0
     15390 MEMB     184      OSM      C6F      CTL2    -0.180000       12.0110           0
     15391 MEMB     184      OSM      H6F      HAL2     0.900000E-01   1.00800           0
     15392 MEMB     184      OSM      H6G      HAL2     0.900000E-01   1.00800           0
     15393 MEMB     184      OSM      C7F      CTL2    -0.180000       12.0110           0
     15394 MEMB     184      OSM      H7F      HAL2     0.900000E-01   1.00800           0
     15395 MEMB     184      OSM      H7G      HAL2     0.900000E-01   1.00800           0
     15396 MEMB     184      OSM      C8F      CTL2    -0.180000       12.0110           0
     15397 MEMB     184      OSM      H8F      HAL2     0.900000E-01   1.00800           0
     15398 MEMB     184      OSM      H8G      HAL2     0.900000E-01   1.00800           0
     15399 MEMB     184      OSM      C9F      CEL1    -0.150000       12.0110           0
     15400 MEMB     184      OSM      H9F      HEL1     0.150000       1.00800           0
     15401 MEMB     184      OSM      C10F     CEL1    -0.150000       12.0110           0
     15402 MEMB     184      OSM      H10F     HEL1     0.150000       1.00800           0
     15403 MEMB     184      OSM      C11F     CTL2    -0.180000       12.0110           0
     15404 MEMB     184      OSM      H11F     HAL2     0.900000E-01   1.00800           0
     15405 MEMB     184      OSM      H11G     HAL2     0.900000E-01   1.00800           0
     15406 MEMB     184      OSM      C12F     CTL2    -0.180000       12.0110           0
     15407 MEMB     184      OSM      H12F     HAL2     0.900000E-01   1.00800           0
     15408 MEMB     184      OSM      H12G     HAL2     0.900000E-01   1.00800           0
     15409 MEMB     184      OSM      C13F     CTL2    -0.180000       12.0110           0
     15410 MEMB     184      OSM      H13F     HAL2     0.900000E-01   1.00800           0
     15411 MEMB     184      OSM      H13G     HAL2     0.900000E-01   1.00800           0
     15412 MEMB     184      OSM      C14F     CTL2    -0.180000       12.0110           0
     15413 MEMB     184      OSM      H14F     HAL2     0.900000E-01   1.00800           0
     15414 MEMB     184      OSM      H14G     HAL2     0.900000E-01   1.00800           0
     15415 MEMB     184      OSM      C15F     CTL2    -0.180000       12.0110           0
     15416 MEMB     184      OSM      H15F     HAL2     0.900000E-01   1.00800           0
     15417 MEMB     184      OSM      H15G     HAL2     0.900000E-01   1.00800           0
     15418 MEMB     184      OSM      C16F     CTL2    -0.180000       12.0110           0
     15419 MEMB     184      OSM      H16F     HAL2     0.900000E-01   1.00800           0
     15420 MEMB     184      OSM      H16G     HAL2     0.900000E-01   1.00800           0
     15421 MEMB     184      OSM      C17F     CTL2    -0.180000       12.0110           0
     15422 MEMB     184      OSM      H17F     HAL2     0.900000E-01   1.00800           0
     15423 MEMB     184      OSM      H17G     HAL2     0.900000E-01   1.00800           0
     15424 MEMB     184      OSM      C18F     CTL3    -0.270000       12.0110           0
     15425 MEMB     184      OSM      H18F     HAL3     0.900000E-01   1.00800           0
     15426 MEMB     184      OSM      H18G     HAL3     0.900000E-01   1.00800           0
     15427 MEMB     184      OSM      H18H     HAL3     0.900000E-01   1.00800           0
     15428 MEMB     186      OSM      N        NTL     -0.600000       14.0070           0
     15429 MEMB     186      OSM      C15      CTL5    -0.350000       12.0110           0
     15430 MEMB     186      OSM      H15A     HL       0.250000       1.00800           0
     15431 MEMB     186      OSM      H15B     HL       0.250000       1.00800           0
     15432 MEMB     186      OSM      H15C     HL       0.250000       1.00800           0
     15433 MEMB     186      OSM      C14      CTL5    -0.350000       12.0110           0
     15434 MEMB     186      OSM      H14A     HL       0.250000       1.00800           0
     15435 MEMB     186      OSM      H14B     HL       0.250000       1.00800           0
     15436 MEMB     186      OSM      H14C     HL       0.250000       1.00800           0
     15437 MEMB     186      OSM      C13      CTL5    -0.350000       12.0110           0
     15438 MEMB     186      OSM      H13A     HL       0.250000       1.00800           0
     15439 MEMB     186      OSM      H13B     HL       0.250000       1.00800           0
     15440 MEMB     186      OSM      H13C     HL       0.250000       1.00800           0
     15441 MEMB     186      OSM      C12      CTL2    -0.100000       12.0110           0
     15442 MEMB     186      OSM      H12A     HL       0.250000       1.00800           0
     15443 MEMB     186      OSM      H12B     HL       0.250000       1.00800           0
     15444 MEMB     186      OSM      C11      CTL2    -0.800000E-01   12.0110           0
     15445 MEMB     186      OSM      H11A     HAL2     0.900000E-01   1.00800           0
     15446 MEMB     186      OSM      H11B     HAL2     0.900000E-01   1.00800           0
     15447 MEMB     186      OSM      P        PL       1.500000       30.9740           0
     15448 MEMB     186      OSM      O13      O2L     -0.780000       15.9994           0
     15449 MEMB     186      OSM      O14      O2L     -0.780000       15.9994           0
     15450 MEMB     186      OSM      O11      OSLP    -0.570000       15.9994           0
     15451 MEMB     186      OSM      O12      OSLP    -0.570000       15.9994           0
     15452 MEMB     186      OSM      C1S      CTL2    -0.800000E-01   12.0110           0
     15453 MEMB     186      OSM      H1S      HAL2     0.900000E-01   1.00800           0
     15454 MEMB     186      OSM      H1T      HAL2     0.900000E-01   1.00800           0
     15455 MEMB     186      OSM      NF       NHL     -0.700000       14.0070           0
     15456 MEMB     186      OSM      HNF      H        0.350000       1.00800           0
     15457 MEMB     186      OSM      C2S      CTL1     0.300000       12.0110           0
     15458 MEMB     186      OSM      H2S      HAL1     0.500000E-01   1.00800           0
     15459 MEMB     186      OSM      C3S      CTO1     0.500000       12.0110           0
     15460 MEMB     186      OSM      H3S      HAL1    -0.110000       1.00800           0
     15461 MEMB     186      OSM      O3       OHL     -0.690000       15.9994           0
     15462 MEMB     186      OSM      HO3      HOL      0.300000       1.00800           0
     15463 MEMB     186      OSM      C4S      CEL3    -0.150000       12.0110           0
     15464 MEMB     186      OSM      H4S      HEL1     0.150000       1.00800           0
     15465 MEMB     186      OSM      C5S      CEL3    -0.150000       12.0110           0
     15466 MEMB     186      OSM      H5S      HEL1     0.150000       1.00800           0
     15467 MEMB     186      OSM      C6S      CTL2    -0.180000       12.0110           0
     15468 MEMB     186      OSM      H6S      HAL2     0.900000E-01   1.00800           0
     15469 MEMB     186      OSM      H6T      HAL2     0.900000E-01   1.00800           0
     15470 MEMB     186      OSM      C7S      CTL2    -0.180000       12.0110           0
     15471 MEMB     186      OSM      H7S      HAL2     0.900000E-01   1.00800           0
     15472 MEMB     186      OSM      H7T      HAL2     0.900000E-01   1.00800           0
     15473 MEMB     186      OSM      C8S      CTL2    -0.180000       12.0110           0
     15474 MEMB     186      OSM      H8S      HAL2     0.900000E-01   1.00800           0
     15475 MEMB     186      OSM      H8T      HAL2     0.900000E-01   1.00800           0
     15476 MEMB     186      OSM      C9S      CTL2    -0.180000       12.0110           0
     15477 MEMB     186      OSM      H9S      HAL2     0.900000E-01   1.00800           0
     15478 MEMB     186      OSM      H9T      HAL2     0.900000E-01   1.00800           0
     15479 MEMB     186      OSM      C10S     CTL2    -0.180000       12.0110           0
     15480 MEMB     186      OSM      H10S     HAL2     0.900000E-01   1.00800           0
     15481 MEMB     186      OSM      H10T     HAL2     0.900000E-01   1.00800           0
     15482 MEMB     186      OSM      C11S     CTL2    -0.180000       12.0110           0
     15483 MEMB     186      OSM      H11S     HAL2     0.900000E-01   1.00800           0
     15484 MEMB     186      OSM      H11T     HAL2     0.900000E-01   1.00800           0
     15485 MEMB     186      OSM      C12S     CTL2    -0.180000       12.0110           0
     15486 MEMB     186      OSM      H12S     HAL2     0.900000E-01   1.00800           0
     15487 MEMB     186      OSM      H12T     HAL2     0.900000E-01   1.00800           0
     15488 MEMB     186      OSM      C13S     CTL2    -0.180000       12.0110           0
     15489 MEMB     186      OSM      H13S     HAL2     0.900000E-01   1.00800           0
     15490 MEMB     186      OSM      H13T     HAL2     0.900000E-01   1.00800           0
     15491 MEMB     186      OSM      C14S     CTL2    -0.180000       12.0110           0
     15492 MEMB     186      OSM      H14S     HAL2     0.900000E-01   1.00800           0
     15493 MEMB     186      OSM      H14T     HAL2     0.900000E-01   1.00800           0
     15494 MEMB     186      OSM      C15S     CTL2    -0.180000       12.0110           0
     15495 MEMB     186      OSM      H15S     HAL2     0.900000E-01   1.00800           0
     15496 MEMB     186      OSM      H15T     HAL2     0.900000E-01   1.00800           0
     15497 MEMB     186      OSM      C16S     CTL2    -0.180000       12.0110           0
     15498 MEMB     186      OSM      H16S     HAL2     0.900000E-01   1.00800           0
     15499 MEMB     186      OSM      H16T     HAL2     0.900000E-01   1.00800           0
     15500 MEMB     186      OSM      C17S     CTL2    -0.180000       12.0110           0
     15501 MEMB     186      OSM      H17S     HAL2     0.900000E-01   1.00800           0
     15502 MEMB     186      OSM      H17T     HAL2     0.900000E-01   1.00800           0
     15503 MEMB     186      OSM      C18S     CTL3    -0.270000       12.0110           0
     15504 MEMB     186      OSM      H18S     HAL3     0.900000E-01   1.00800           0
     15505 MEMB     186      OSM      H18T     HAL3     0.900000E-01   1.00800           0
     15506 MEMB     186      OSM      H18U     HAL3     0.900000E-01   1.00800           0
     15507 MEMB     186      OSM      C1F      C        0.550000       12.0110           0
     15508 MEMB     186      OSM      OF       O       -0.600000       15.9994           0
     15509 MEMB     186      OSM      C2F      CTL2    -0.700000E-01   12.0110           0
     15510 MEMB     186      OSM      H2F      HAL2     0.600000E-01   1.00800           0
     15511 MEMB     186      OSM      H2G      HAL2     0.600000E-01   1.00800           0
     15512 MEMB     186      OSM      C3F      CTL2    -0.180000       12.0110           0
     15513 MEMB     186      OSM      H3F      HAL2     0.900000E-01   1.00800           0
     15514 MEMB     186      OSM      H3G      HAL2     0.900000E-01   1.00800           0
     15515 MEMB     186      OSM      C4F      CTL2    -0.180000       12.0110           0
     15516 MEMB     186      OSM      H4F      HAL2     0.900000E-01   1.00800           0
     15517 MEMB     186      OSM      H4G      HAL2     0.900000E-01   1.00800           0
     15518 MEMB     186      OSM      C5F      CTL2    -0.180000       12.0110           0
     15519 MEMB     186      OSM      H5F      HAL2     0.900000E-01   1.00800           0
     15520 MEMB     186      OSM      H5G      HAL2     0.900000E-01   1.00800           0
     15521 MEMB     186      OSM      C6F      CTL2    -0.180000       12.0110           0
     15522 MEMB     186      OSM      H6F      HAL2     0.900000E-01   1.00800           0
     15523 MEMB     186      OSM      H6G      HAL2     0.900000E-01   1.00800           0
     15524 MEMB     186      OSM      C7F      CTL2    -0.180000       12.0110           0
     15525 MEMB     186      OSM      H7F      HAL2     0.900000E-01   1.00800           0
     15526 MEMB     186      OSM      H7G      HAL2     0.900000E-01   1.00800           0
     15527 MEMB     186      OSM      C8F      CTL2    -0.180000       12.0110           0
     15528 MEMB     186      OSM      H8F      HAL2     0.900000E-01   1.00800           0
     15529 MEMB     186      OSM      H8G      HAL2     0.900000E-01   1.00800           0
     15530 MEMB     186      OSM      C9F      CEL1    -0.150000       12.0110           0
     15531 MEMB     186      OSM      H9F      HEL1     0.150000       1.00800           0
     15532 MEMB     186      OSM      C10F     CEL1    -0.150000       12.0110           0
     15533 MEMB     186      OSM      H10F     HEL1     0.150000       1.00800           0
     15534 MEMB     186      OSM      C11F     CTL2    -0.180000       12.0110           0
     15535 MEMB     186      OSM      H11F     HAL2     0.900000E-01   1.00800           0
     15536 MEMB     186      OSM      H11G     HAL2     0.900000E-01   1.00800           0
     15537 MEMB     186      OSM      C12F     CTL2    -0.180000       12.0110           0
     15538 MEMB     186      OSM      H12F     HAL2     0.900000E-01   1.00800           0
     15539 MEMB     186      OSM      H12G     HAL2     0.900000E-01   1.00800           0
     15540 MEMB     186      OSM      C13F     CTL2    -0.180000       12.0110           0
     15541 MEMB     186      OSM      H13F     HAL2     0.900000E-01   1.00800           0
     15542 MEMB     186      OSM      H13G     HAL2     0.900000E-01   1.00800           0
     15543 MEMB     186      OSM      C14F     CTL2    -0.180000       12.0110           0
     15544 MEMB     186      OSM      H14F     HAL2     0.900000E-01   1.00800           0
     15545 MEMB     186      OSM      H14G     HAL2     0.900000E-01   1.00800           0
     15546 MEMB     186      OSM      C15F     CTL2    -0.180000       12.0110           0
     15547 MEMB     186      OSM      H15F     HAL2     0.900000E-01   1.00800           0
     15548 MEMB     186      OSM      H15G     HAL2     0.900000E-01   1.00800           0
     15549 MEMB     186      OSM      C16F     CTL2    -0.180000       12.0110           0
     15550 MEMB     186      OSM      H16F     HAL2     0.900000E-01   1.00800           0
     15551 MEMB     186      OSM      H16G     HAL2     0.900000E-01   1.00800           0
     15552 MEMB     186      OSM      C17F     CTL2    -0.180000       12.0110           0
     15553 MEMB     186      OSM      H17F     HAL2     0.900000E-01   1.00800           0
     15554 MEMB     186      OSM      H17G     HAL2     0.900000E-01   1.00800           0
     15555 MEMB     186      OSM      C18F     CTL3    -0.270000       12.0110           0
     15556 MEMB     186      OSM      H18F     HAL3     0.900000E-01   1.00800           0
     15557 MEMB     186      OSM      H18G     HAL3     0.900000E-01   1.00800           0
     15558 MEMB     186      OSM      H18H     HAL3     0.900000E-01   1.00800           0
     15559 MEMB     188      OSM      N        NTL     -0.600000       14.0070           0
     15560 MEMB     188      OSM      C15      CTL5    -0.350000       12.0110           0
     15561 MEMB     188      OSM      H15A     HL       0.250000       1.00800           0
     15562 MEMB     188      OSM      H15B     HL       0.250000       1.00800           0
     15563 MEMB     188      OSM      H15C     HL       0.250000       1.00800           0
     15564 MEMB     188      OSM      C14      CTL5    -0.350000       12.0110           0
     15565 MEMB     188      OSM      H14A     HL       0.250000       1.00800           0
     15566 MEMB     188      OSM      H14B     HL       0.250000       1.00800           0
     15567 MEMB     188      OSM      H14C     HL       0.250000       1.00800           0
     15568 MEMB     188      OSM      C13      CTL5    -0.350000       12.0110           0
     15569 MEMB     188      OSM      H13A     HL       0.250000       1.00800           0
     15570 MEMB     188      OSM      H13B     HL       0.250000       1.00800           0
     15571 MEMB     188      OSM      H13C     HL       0.250000       1.00800           0
     15572 MEMB     188      OSM      C12      CTL2    -0.100000       12.0110           0
     15573 MEMB     188      OSM      H12A     HL       0.250000       1.00800           0
     15574 MEMB     188      OSM      H12B     HL       0.250000       1.00800           0
     15575 MEMB     188      OSM      C11      CTL2    -0.800000E-01   12.0110           0
     15576 MEMB     188      OSM      H11A     HAL2     0.900000E-01   1.00800           0
     15577 MEMB     188      OSM      H11B     HAL2     0.900000E-01   1.00800           0
     15578 MEMB     188      OSM      P        PL       1.500000       30.9740           0
     15579 MEMB     188      OSM      O13      O2L     -0.780000       15.9994           0
     15580 MEMB     188      OSM      O14      O2L     -0.780000       15.9994           0
     15581 MEMB     188      OSM      O11      OSLP    -0.570000       15.9994           0
     15582 MEMB     188      OSM      O12      OSLP    -0.570000       15.9994           0
     15583 MEMB     188      OSM      C1S      CTL2    -0.800000E-01   12.0110           0
     15584 MEMB     188      OSM      H1S      HAL2     0.900000E-01   1.00800           0
     15585 MEMB     188      OSM      H1T      HAL2     0.900000E-01   1.00800           0
     15586 MEMB     188      OSM      NF       NHL     -0.700000       14.0070           0
     15587 MEMB     188      OSM      HNF      H        0.350000       1.00800           0
     15588 MEMB     188      OSM      C2S      CTL1     0.300000       12.0110           0
     15589 MEMB     188      OSM      H2S      HAL1     0.500000E-01   1.00800           0
     15590 MEMB     188      OSM      C3S      CTO1     0.500000       12.0110           0
     15591 MEMB     188      OSM      H3S      HAL1    -0.110000       1.00800           0
     15592 MEMB     188      OSM      O3       OHL     -0.690000       15.9994           0
     15593 MEMB     188      OSM      HO3      HOL      0.300000       1.00800           0
     15594 MEMB     188      OSM      C4S      CEL3    -0.150000       12.0110           0
     15595 MEMB     188      OSM      H4S      HEL1     0.150000       1.00800           0
     15596 MEMB     188      OSM      C5S      CEL3    -0.150000       12.0110           0
     15597 MEMB     188      OSM      H5S      HEL1     0.150000       1.00800           0
     15598 MEMB     188      OSM      C6S      CTL2    -0.180000       12.0110           0
     15599 MEMB     188      OSM      H6S      HAL2     0.900000E-01   1.00800           0
     15600 MEMB     188      OSM      H6T      HAL2     0.900000E-01   1.00800           0
     15601 MEMB     188      OSM      C7S      CTL2    -0.180000       12.0110           0
     15602 MEMB     188      OSM      H7S      HAL2     0.900000E-01   1.00800           0
     15603 MEMB     188      OSM      H7T      HAL2     0.900000E-01   1.00800           0
     15604 MEMB     188      OSM      C8S      CTL2    -0.180000       12.0110           0
     15605 MEMB     188      OSM      H8S      HAL2     0.900000E-01   1.00800           0
     15606 MEMB     188      OSM      H8T      HAL2     0.900000E-01   1.00800           0
     15607 MEMB     188      OSM      C9S      CTL2    -0.180000       12.0110           0
     15608 MEMB     188      OSM      H9S      HAL2     0.900000E-01   1.00800           0
     15609 MEMB     188      OSM      H9T      HAL2     0.900000E-01   1.00800           0
     15610 MEMB     188      OSM      C10S     CTL2    -0.180000       12.0110           0
     15611 MEMB     188      OSM      H10S     HAL2     0.900000E-01   1.00800           0
     15612 MEMB     188      OSM      H10T     HAL2     0.900000E-01   1.00800           0
     15613 MEMB     188      OSM      C11S     CTL2    -0.180000       12.0110           0
     15614 MEMB     188      OSM      H11S     HAL2     0.900000E-01   1.00800           0
     15615 MEMB     188      OSM      H11T     HAL2     0.900000E-01   1.00800           0
     15616 MEMB     188      OSM      C12S     CTL2    -0.180000       12.0110           0
     15617 MEMB     188      OSM      H12S     HAL2     0.900000E-01   1.00800           0
     15618 MEMB     188      OSM      H12T     HAL2     0.900000E-01   1.00800           0
     15619 MEMB     188      OSM      C13S     CTL2    -0.180000       12.0110           0
     15620 MEMB     188      OSM      H13S     HAL2     0.900000E-01   1.00800           0
     15621 MEMB     188      OSM      H13T     HAL2     0.900000E-01   1.00800           0
     15622 MEMB     188      OSM      C14S     CTL2    -0.180000       12.0110           0
     15623 MEMB     188      OSM      H14S     HAL2     0.900000E-01   1.00800           0
     15624 MEMB     188      OSM      H14T     HAL2     0.900000E-01   1.00800           0
     15625 MEMB     188      OSM      C15S     CTL2    -0.180000       12.0110           0
     15626 MEMB     188      OSM      H15S     HAL2     0.900000E-01   1.00800           0
     15627 MEMB     188      OSM      H15T     HAL2     0.900000E-01   1.00800           0
     15628 MEMB     188      OSM      C16S     CTL2    -0.180000       12.0110           0
     15629 MEMB     188      OSM      H16S     HAL2     0.900000E-01   1.00800           0
     15630 MEMB     188      OSM      H16T     HAL2     0.900000E-01   1.00800           0
     15631 MEMB     188      OSM      C17S     CTL2    -0.180000       12.0110           0
     15632 MEMB     188      OSM      H17S     HAL2     0.900000E-01   1.00800           0
     15633 MEMB     188      OSM      H17T     HAL2     0.900000E-01   1.00800           0
     15634 MEMB     188      OSM      C18S     CTL3    -0.270000       12.0110           0
     15635 MEMB     188      OSM      H18S     HAL3     0.900000E-01   1.00800           0
     15636 MEMB     188      OSM      H18T     HAL3     0.900000E-01   1.00800           0
     15637 MEMB     188      OSM      H18U     HAL3     0.900000E-01   1.00800           0
     15638 MEMB     188      OSM      C1F      C        0.550000       12.0110           0
     15639 MEMB     188      OSM      OF       O       -0.600000       15.9994           0
     15640 MEMB     188      OSM      C2F      CTL2    -0.700000E-01   12.0110           0
     15641 MEMB     188      OSM      H2F      HAL2     0.600000E-01   1.00800           0
     15642 MEMB     188      OSM      H2G      HAL2     0.600000E-01   1.00800           0
     15643 MEMB     188      OSM      C3F      CTL2    -0.180000       12.0110           0
     15644 MEMB     188      OSM      H3F      HAL2     0.900000E-01   1.00800           0
     15645 MEMB     188      OSM      H3G      HAL2     0.900000E-01   1.00800           0
     15646 MEMB     188      OSM      C4F      CTL2    -0.180000       12.0110           0
     15647 MEMB     188      OSM      H4F      HAL2     0.900000E-01   1.00800           0
     15648 MEMB     188      OSM      H4G      HAL2     0.900000E-01   1.00800           0
     15649 MEMB     188      OSM      C5F      CTL2    -0.180000       12.0110           0
     15650 MEMB     188      OSM      H5F      HAL2     0.900000E-01   1.00800           0
     15651 MEMB     188      OSM      H5G      HAL2     0.900000E-01   1.00800           0
     15652 MEMB     188      OSM      C6F      CTL2    -0.180000       12.0110           0
     15653 MEMB     188      OSM      H6F      HAL2     0.900000E-01   1.00800           0
     15654 MEMB     188      OSM      H6G      HAL2     0.900000E-01   1.00800           0
     15655 MEMB     188      OSM      C7F      CTL2    -0.180000       12.0110           0
     15656 MEMB     188      OSM      H7F      HAL2     0.900000E-01   1.00800           0
     15657 MEMB     188      OSM      H7G      HAL2     0.900000E-01   1.00800           0
     15658 MEMB     188      OSM      C8F      CTL2    -0.180000       12.0110           0
     15659 MEMB     188      OSM      H8F      HAL2     0.900000E-01   1.00800           0
     15660 MEMB     188      OSM      H8G      HAL2     0.900000E-01   1.00800           0
     15661 MEMB     188      OSM      C9F      CEL1    -0.150000       12.0110           0
     15662 MEMB     188      OSM      H9F      HEL1     0.150000       1.00800           0
     15663 MEMB     188      OSM      C10F     CEL1    -0.150000       12.0110           0
     15664 MEMB     188      OSM      H10F     HEL1     0.150000       1.00800           0
     15665 MEMB     188      OSM      C11F     CTL2    -0.180000       12.0110           0
     15666 MEMB     188      OSM      H11F     HAL2     0.900000E-01   1.00800           0
     15667 MEMB     188      OSM      H11G     HAL2     0.900000E-01   1.00800           0
     15668 MEMB     188      OSM      C12F     CTL2    -0.180000       12.0110           0
     15669 MEMB     188      OSM      H12F     HAL2     0.900000E-01   1.00800           0
     15670 MEMB     188      OSM      H12G     HAL2     0.900000E-01   1.00800           0
     15671 MEMB     188      OSM      C13F     CTL2    -0.180000       12.0110           0
     15672 MEMB     188      OSM      H13F     HAL2     0.900000E-01   1.00800           0
     15673 MEMB     188      OSM      H13G     HAL2     0.900000E-01   1.00800           0
     15674 MEMB     188      OSM      C14F     CTL2    -0.180000       12.0110           0
     15675 MEMB     188      OSM      H14F     HAL2     0.900000E-01   1.00800           0
     15676 MEMB     188      OSM      H14G     HAL2     0.900000E-01   1.00800           0
     15677 MEMB     188      OSM      C15F     CTL2    -0.180000       12.0110           0
     15678 MEMB     188      OSM      H15F     HAL2     0.900000E-01   1.00800           0
     15679 MEMB     188      OSM      H15G     HAL2     0.900000E-01   1.00800           0
     15680 MEMB     188      OSM      C16F     CTL2    -0.180000       12.0110           0
     15681 MEMB     188      OSM      H16F     HAL2     0.900000E-01   1.00800           0
     15682 MEMB     188      OSM      H16G     HAL2     0.900000E-01   1.00800           0
     15683 MEMB     188      OSM      C17F     CTL2    -0.180000       12.0110           0
     15684 MEMB     188      OSM      H17F     HAL2     0.900000E-01   1.00800           0
     15685 MEMB     188      OSM      H17G     HAL2     0.900000E-01   1.00800           0
     15686 MEMB     188      OSM      C18F     CTL3    -0.270000       12.0110           0
     15687 MEMB     188      OSM      H18F     HAL3     0.900000E-01   1.00800           0
     15688 MEMB     188      OSM      H18G     HAL3     0.900000E-01   1.00800           0
     15689 MEMB     188      OSM      H18H     HAL3     0.900000E-01   1.00800           0
     15690 MEMB     189      OSM      N        NTL     -0.600000       14.0070           0
     15691 MEMB     189      OSM      C15      CTL5    -0.350000       12.0110           0
     15692 MEMB     189      OSM      H15A     HL       0.250000       1.00800           0
     15693 MEMB     189      OSM      H15B     HL       0.250000       1.00800           0
     15694 MEMB     189      OSM      H15C     HL       0.250000       1.00800           0
     15695 MEMB     189      OSM      C14      CTL5    -0.350000       12.0110           0
     15696 MEMB     189      OSM      H14A     HL       0.250000       1.00800           0
     15697 MEMB     189      OSM      H14B     HL       0.250000       1.00800           0
     15698 MEMB     189      OSM      H14C     HL       0.250000       1.00800           0
     15699 MEMB     189      OSM      C13      CTL5    -0.350000       12.0110           0
     15700 MEMB     189      OSM      H13A     HL       0.250000       1.00800           0
     15701 MEMB     189      OSM      H13B     HL       0.250000       1.00800           0
     15702 MEMB     189      OSM      H13C     HL       0.250000       1.00800           0
     15703 MEMB     189      OSM      C12      CTL2    -0.100000       12.0110           0
     15704 MEMB     189      OSM      H12A     HL       0.250000       1.00800           0
     15705 MEMB     189      OSM      H12B     HL       0.250000       1.00800           0
     15706 MEMB     189      OSM      C11      CTL2    -0.800000E-01   12.0110           0
     15707 MEMB     189      OSM      H11A     HAL2     0.900000E-01   1.00800           0
     15708 MEMB     189      OSM      H11B     HAL2     0.900000E-01   1.00800           0
     15709 MEMB     189      OSM      P        PL       1.500000       30.9740           0
     15710 MEMB     189      OSM      O13      O2L     -0.780000       15.9994           0
     15711 MEMB     189      OSM      O14      O2L     -0.780000       15.9994           0
     15712 MEMB     189      OSM      O11      OSLP    -0.570000       15.9994           0
     15713 MEMB     189      OSM      O12      OSLP    -0.570000       15.9994           0
     15714 MEMB     189      OSM      C1S      CTL2    -0.800000E-01   12.0110           0
     15715 MEMB     189      OSM      H1S      HAL2     0.900000E-01   1.00800           0
     15716 MEMB     189      OSM      H1T      HAL2     0.900000E-01   1.00800           0
     15717 MEMB     189      OSM      NF       NHL     -0.700000       14.0070           0
     15718 MEMB     189      OSM      HNF      H        0.350000       1.00800           0
     15719 MEMB     189      OSM      C2S      CTL1     0.300000       12.0110           0
     15720 MEMB     189      OSM      H2S      HAL1     0.500000E-01   1.00800           0
     15721 MEMB     189      OSM      C3S      CTO1     0.500000       12.0110           0
     15722 MEMB     189      OSM      H3S      HAL1    -0.110000       1.00800           0
     15723 MEMB     189      OSM      O3       OHL     -0.690000       15.9994           0
     15724 MEMB     189      OSM      HO3      HOL      0.300000       1.00800           0
     15725 MEMB     189      OSM      C4S      CEL3    -0.150000       12.0110           0
     15726 MEMB     189      OSM      H4S      HEL1     0.150000       1.00800           0
     15727 MEMB     189      OSM      C5S      CEL3    -0.150000       12.0110           0
     15728 MEMB     189      OSM      H5S      HEL1     0.150000       1.00800           0
     15729 MEMB     189      OSM      C6S      CTL2    -0.180000       12.0110           0
     15730 MEMB     189      OSM      H6S      HAL2     0.900000E-01   1.00800           0
     15731 MEMB     189      OSM      H6T      HAL2     0.900000E-01   1.00800           0
     15732 MEMB     189      OSM      C7S      CTL2    -0.180000       12.0110           0
     15733 MEMB     189      OSM      H7S      HAL2     0.900000E-01   1.00800           0
     15734 MEMB     189      OSM      H7T      HAL2     0.900000E-01   1.00800           0
     15735 MEMB     189      OSM      C8S      CTL2    -0.180000       12.0110           0
     15736 MEMB     189      OSM      H8S      HAL2     0.900000E-01   1.00800           0
     15737 MEMB     189      OSM      H8T      HAL2     0.900000E-01   1.00800           0
     15738 MEMB     189      OSM      C9S      CTL2    -0.180000       12.0110           0
     15739 MEMB     189      OSM      H9S      HAL2     0.900000E-01   1.00800           0
     15740 MEMB     189      OSM      H9T      HAL2     0.900000E-01   1.00800           0
     15741 MEMB     189      OSM      C10S     CTL2    -0.180000       12.0110           0
     15742 MEMB     189      OSM      H10S     HAL2     0.900000E-01   1.00800           0
     15743 MEMB     189      OSM      H10T     HAL2     0.900000E-01   1.00800           0
     15744 MEMB     189      OSM      C11S     CTL2    -0.180000       12.0110           0
     15745 MEMB     189      OSM      H11S     HAL2     0.900000E-01   1.00800           0
     15746 MEMB     189      OSM      H11T     HAL2     0.900000E-01   1.00800           0
     15747 MEMB     189      OSM      C12S     CTL2    -0.180000       12.0110           0
     15748 MEMB     189      OSM      H12S     HAL2     0.900000E-01   1.00800           0
     15749 MEMB     189      OSM      H12T     HAL2     0.900000E-01   1.00800           0
     15750 MEMB     189      OSM      C13S     CTL2    -0.180000       12.0110           0
     15751 MEMB     189      OSM      H13S     HAL2     0.900000E-01   1.00800           0
     15752 MEMB     189      OSM      H13T     HAL2     0.900000E-01   1.00800           0
     15753 MEMB     189      OSM      C14S     CTL2    -0.180000       12.0110           0
     15754 MEMB     189      OSM      H14S     HAL2     0.900000E-01   1.00800           0
     15755 MEMB     189      OSM      H14T     HAL2     0.900000E-01   1.00800           0
     15756 MEMB     189      OSM      C15S     CTL2    -0.180000       12.0110           0
     15757 MEMB     189      OSM      H15S     HAL2     0.900000E-01   1.00800           0
     15758 MEMB     189      OSM      H15T     HAL2     0.900000E-01   1.00800           0
     15759 MEMB     189      OSM      C16S     CTL2    -0.180000       12.0110           0
     15760 MEMB     189      OSM      H16S     HAL2     0.900000E-01   1.00800           0
     15761 MEMB     189      OSM      H16T     HAL2     0.900000E-01   1.00800           0
     15762 MEMB     189      OSM      C17S     CTL2    -0.180000       12.0110           0
     15763 MEMB     189      OSM      H17S     HAL2     0.900000E-01   1.00800           0
     15764 MEMB     189      OSM      H17T     HAL2     0.900000E-01   1.00800           0
     15765 MEMB     189      OSM      C18S     CTL3    -0.270000       12.0110           0
     15766 MEMB     189      OSM      H18S     HAL3     0.900000E-01   1.00800           0
     15767 MEMB     189      OSM      H18T     HAL3     0.900000E-01   1.00800           0
     15768 MEMB     189      OSM      H18U     HAL3     0.900000E-01   1.00800           0
     15769 MEMB     189      OSM      C1F      C        0.550000       12.0110           0
     15770 MEMB     189      OSM      OF       O       -0.600000       15.9994           0
     15771 MEMB     189      OSM      C2F      CTL2    -0.700000E-01   12.0110           0
     15772 MEMB     189      OSM      H2F      HAL2     0.600000E-01   1.00800           0
     15773 MEMB     189      OSM      H2G      HAL2     0.600000E-01   1.00800           0
     15774 MEMB     189      OSM      C3F      CTL2    -0.180000       12.0110           0
     15775 MEMB     189      OSM      H3F      HAL2     0.900000E-01   1.00800           0
     15776 MEMB     189      OSM      H3G      HAL2     0.900000E-01   1.00800           0
     15777 MEMB     189      OSM      C4F      CTL2    -0.180000       12.0110           0
     15778 MEMB     189      OSM      H4F      HAL2     0.900000E-01   1.00800           0
     15779 MEMB     189      OSM      H4G      HAL2     0.900000E-01   1.00800           0
     15780 MEMB     189      OSM      C5F      CTL2    -0.180000       12.0110           0
     15781 MEMB     189      OSM      H5F      HAL2     0.900000E-01   1.00800           0
     15782 MEMB     189      OSM      H5G      HAL2     0.900000E-01   1.00800           0
     15783 MEMB     189      OSM      C6F      CTL2    -0.180000       12.0110           0
     15784 MEMB     189      OSM      H6F      HAL2     0.900000E-01   1.00800           0
     15785 MEMB     189      OSM      H6G      HAL2     0.900000E-01   1.00800           0
     15786 MEMB     189      OSM      C7F      CTL2    -0.180000       12.0110           0
     15787 MEMB     189      OSM      H7F      HAL2     0.900000E-01   1.00800           0
     15788 MEMB     189      OSM      H7G      HAL2     0.900000E-01   1.00800           0
     15789 MEMB     189      OSM      C8F      CTL2    -0.180000       12.0110           0
     15790 MEMB     189      OSM      H8F      HAL2     0.900000E-01   1.00800           0
     15791 MEMB     189      OSM      H8G      HAL2     0.900000E-01   1.00800           0
     15792 MEMB     189      OSM      C9F      CEL1    -0.150000       12.0110           0
     15793 MEMB     189      OSM      H9F      HEL1     0.150000       1.00800           0
     15794 MEMB     189      OSM      C10F     CEL1    -0.150000       12.0110           0
     15795 MEMB     189      OSM      H10F     HEL1     0.150000       1.00800           0
     15796 MEMB     189      OSM      C11F     CTL2    -0.180000       12.0110           0
     15797 MEMB     189      OSM      H11F     HAL2     0.900000E-01   1.00800           0
     15798 MEMB     189      OSM      H11G     HAL2     0.900000E-01   1.00800           0
     15799 MEMB     189      OSM      C12F     CTL2    -0.180000       12.0110           0
     15800 MEMB     189      OSM      H12F     HAL2     0.900000E-01   1.00800           0
     15801 MEMB     189      OSM      H12G     HAL2     0.900000E-01   1.00800           0
     15802 MEMB     189      OSM      C13F     CTL2    -0.180000       12.0110           0
     15803 MEMB     189      OSM      H13F     HAL2     0.900000E-01   1.00800           0
     15804 MEMB     189      OSM      H13G     HAL2     0.900000E-01   1.00800           0
     15805 MEMB     189      OSM      C14F     CTL2    -0.180000       12.0110           0
     15806 MEMB     189      OSM      H14F     HAL2     0.900000E-01   1.00800           0
     15807 MEMB     189      OSM      H14G     HAL2     0.900000E-01   1.00800           0
     15808 MEMB     189      OSM      C15F     CTL2    -0.180000       12.0110           0
     15809 MEMB     189      OSM      H15F     HAL2     0.900000E-01   1.00800           0
     15810 MEMB     189      OSM      H15G     HAL2     0.900000E-01   1.00800           0
     15811 MEMB     189      OSM      C16F     CTL2    -0.180000       12.0110           0
     15812 MEMB     189      OSM      H16F     HAL2     0.900000E-01   1.00800           0
     15813 MEMB     189      OSM      H16G     HAL2     0.900000E-01   1.00800           0
     15814 MEMB     189      OSM      C17F     CTL2    -0.180000       12.0110           0
     15815 MEMB     189      OSM      H17F     HAL2     0.900000E-01   1.00800           0
     15816 MEMB     189      OSM      H17G     HAL2     0.900000E-01   1.00800           0
     15817 MEMB     189      OSM      C18F     CTL3    -0.270000       12.0110           0
     15818 MEMB     189      OSM      H18F     HAL3     0.900000E-01   1.00800           0
     15819 MEMB     189      OSM      H18G     HAL3     0.900000E-01   1.00800           0
     15820 MEMB     189      OSM      H18H     HAL3     0.900000E-01   1.00800           0
     15821 MEMB     20       SAPE     N        NH3L    -0.300000       14.0070           0
     15822 MEMB     20       SAPE     HN1      HCL      0.330000       1.00800           0
     15823 MEMB     20       SAPE     HN2      HCL      0.330000       1.00800           0
     15824 MEMB     20       SAPE     HN3      HCL      0.330000       1.00800           0
     15825 MEMB     20       SAPE     C12      CTL2     0.130000       12.0110           0
     15826 MEMB     20       SAPE     H12A     HAL2     0.900000E-01   1.00800           0
     15827 MEMB     20       SAPE     H12B     HAL2     0.900000E-01   1.00800           0
     15828 MEMB     20       SAPE     C11      CTL2    -0.800000E-01   12.0110           0
     15829 MEMB     20       SAPE     H11A     HAL2     0.900000E-01   1.00800           0
     15830 MEMB     20       SAPE     H11B     HAL2     0.900000E-01   1.00800           0
     15831 MEMB     20       SAPE     P        PL       1.500000       30.9740           0
     15832 MEMB     20       SAPE     O13      O2L     -0.780000       15.9994           0
     15833 MEMB     20       SAPE     O14      O2L     -0.780000       15.9994           0
     15834 MEMB     20       SAPE     O12      OSLP    -0.570000       15.9994           0
     15835 MEMB     20       SAPE     O11      OSLP    -0.570000       15.9994           0
     15836 MEMB     20       SAPE     C1       CTL2    -0.800000E-01   12.0110           0
     15837 MEMB     20       SAPE     HA       HAL2     0.900000E-01   1.00800           0
     15838 MEMB     20       SAPE     HB       HAL2     0.900000E-01   1.00800           0
     15839 MEMB     20       SAPE     C2       CTL1     0.170000       12.0110           0
     15840 MEMB     20       SAPE     HS       HAL1     0.900000E-01   1.00800           0
     15841 MEMB     20       SAPE     O21      OSL     -0.490000       15.9994           0
     15842 MEMB     20       SAPE     C21      CL       0.900000       12.0110           0
     15843 MEMB     20       SAPE     O22      OBL     -0.630000       15.9994           0
     15844 MEMB     20       SAPE     C22      CTL2    -0.220000       12.0110           0
     15845 MEMB     20       SAPE     H2R      HAL2     0.900000E-01   1.00800           0
     15846 MEMB     20       SAPE     H2S      HAL2     0.900000E-01   1.00800           0
     15847 MEMB     20       SAPE     C3       CTL2     0.800000E-01   12.0110           0
     15848 MEMB     20       SAPE     HX       HAL2     0.900000E-01   1.00800           0
     15849 MEMB     20       SAPE     HY       HAL2     0.900000E-01   1.00800           0
     15850 MEMB     20       SAPE     O31      OSL     -0.490000       15.9994           0
     15851 MEMB     20       SAPE     C31      CL       0.900000       12.0110           0
     15852 MEMB     20       SAPE     O32      OBL     -0.630000       15.9994           0
     15853 MEMB     20       SAPE     C32      CTL2    -0.220000       12.0110           0
     15854 MEMB     20       SAPE     H2X      HAL2     0.900000E-01   1.00800           0
     15855 MEMB     20       SAPE     H2Y      HAL2     0.900000E-01   1.00800           0
     15856 MEMB     20       SAPE     C23      CTL2    -0.180000       12.0110           0
     15857 MEMB     20       SAPE     H3R      HAL2     0.900000E-01   1.00800           0
     15858 MEMB     20       SAPE     H3S      HAL2     0.900000E-01   1.00800           0
     15859 MEMB     20       SAPE     C24      CTL2    -0.180000       12.0110           0
     15860 MEMB     20       SAPE     H4R      HAL2     0.900000E-01   1.00800           0
     15861 MEMB     20       SAPE     H4S      HAL2     0.900000E-01   1.00800           0
     15862 MEMB     20       SAPE     C25      CEL1    -0.150000       12.0110           0
     15863 MEMB     20       SAPE     H5R      HEL1     0.150000       1.00800           0
     15864 MEMB     20       SAPE     C26      CEL1    -0.150000       12.0110           0
     15865 MEMB     20       SAPE     H6R      HEL1     0.150000       1.00800           0
     15866 MEMB     20       SAPE     C27      CTL2    -0.180000       12.0110           0
     15867 MEMB     20       SAPE     H7R      HAL2     0.900000E-01   1.00800           0
     15868 MEMB     20       SAPE     H7S      HAL2     0.900000E-01   1.00800           0
     15869 MEMB     20       SAPE     C28      CEL1    -0.150000       12.0110           0
     15870 MEMB     20       SAPE     H8R      HEL1     0.150000       1.00800           0
     15871 MEMB     20       SAPE     C29      CEL1    -0.150000       12.0110           0
     15872 MEMB     20       SAPE     H9R      HEL1     0.150000       1.00800           0
     15873 MEMB     20       SAPE     C210     CTL2    -0.180000       12.0110           0
     15874 MEMB     20       SAPE     H10R     HAL2     0.900000E-01   1.00800           0
     15875 MEMB     20       SAPE     H10S     HAL2     0.900000E-01   1.00800           0
     15876 MEMB     20       SAPE     C211     CEL1    -0.150000       12.0110           0
     15877 MEMB     20       SAPE     H11R     HEL1     0.150000       1.00800           0
     15878 MEMB     20       SAPE     C212     CEL1    -0.150000       12.0110           0
     15879 MEMB     20       SAPE     H12R     HEL1     0.150000       1.00800           0
     15880 MEMB     20       SAPE     C213     CTL2    -0.180000       12.0110           0
     15881 MEMB     20       SAPE     H13R     HAL2     0.900000E-01   1.00800           0
     15882 MEMB     20       SAPE     H13S     HAL2     0.900000E-01   1.00800           0
     15883 MEMB     20       SAPE     C214     CEL1    -0.150000       12.0110           0
     15884 MEMB     20       SAPE     H14R     HEL1     0.150000       1.00800           0
     15885 MEMB     20       SAPE     C215     CEL1    -0.150000       12.0110           0
     15886 MEMB     20       SAPE     H15R     HEL1     0.150000       1.00800           0
     15887 MEMB     20       SAPE     C216     CTL2    -0.180000       12.0110           0
     15888 MEMB     20       SAPE     H16R     HAL2     0.900000E-01   1.00800           0
     15889 MEMB     20       SAPE     H16S     HAL2     0.900000E-01   1.00800           0
     15890 MEMB     20       SAPE     C217     CTL2    -0.180000       12.0110           0
     15891 MEMB     20       SAPE     H17R     HAL2     0.900000E-01   1.00800           0
     15892 MEMB     20       SAPE     H17S     HAL2     0.900000E-01   1.00800           0
     15893 MEMB     20       SAPE     C218     CTL2    -0.180000       12.0110           0
     15894 MEMB     20       SAPE     H18R     HAL2     0.900000E-01   1.00800           0
     15895 MEMB     20       SAPE     H18S     HAL2     0.900000E-01   1.00800           0
     15896 MEMB     20       SAPE     C219     CTL2    -0.180000       12.0110           0
     15897 MEMB     20       SAPE     H19R     HAL2     0.900000E-01   1.00800           0
     15898 MEMB     20       SAPE     H19S     HAL2     0.900000E-01   1.00800           0
     15899 MEMB     20       SAPE     C220     CTL3    -0.270000       12.0110           0
     15900 MEMB     20       SAPE     H20R     HAL3     0.900000E-01   1.00800           0
     15901 MEMB     20       SAPE     H20S     HAL3     0.900000E-01   1.00800           0
     15902 MEMB     20       SAPE     H20T     HAL3     0.900000E-01   1.00800           0
     15903 MEMB     20       SAPE     C33      CTL2    -0.180000       12.0110           0
     15904 MEMB     20       SAPE     H3X      HAL2     0.900000E-01   1.00800           0
     15905 MEMB     20       SAPE     H3Y      HAL2     0.900000E-01   1.00800           0
     15906 MEMB     20       SAPE     C34      CTL2    -0.180000       12.0110           0
     15907 MEMB     20       SAPE     H4X      HAL2     0.900000E-01   1.00800           0
     15908 MEMB     20       SAPE     H4Y      HAL2     0.900000E-01   1.00800           0
     15909 MEMB     20       SAPE     C35      CTL2    -0.180000       12.0110           0
     15910 MEMB     20       SAPE     H5X      HAL2     0.900000E-01   1.00800           0
     15911 MEMB     20       SAPE     H5Y      HAL2     0.900000E-01   1.00800           0
     15912 MEMB     20       SAPE     C36      CTL2    -0.180000       12.0110           0
     15913 MEMB     20       SAPE     H6X      HAL2     0.900000E-01   1.00800           0
     15914 MEMB     20       SAPE     H6Y      HAL2     0.900000E-01   1.00800           0
     15915 MEMB     20       SAPE     C37      CTL2    -0.180000       12.0110           0
     15916 MEMB     20       SAPE     H7X      HAL2     0.900000E-01   1.00800           0
     15917 MEMB     20       SAPE     H7Y      HAL2     0.900000E-01   1.00800           0
     15918 MEMB     20       SAPE     C38      CTL2    -0.180000       12.0110           0
     15919 MEMB     20       SAPE     H8X      HAL2     0.900000E-01   1.00800           0
     15920 MEMB     20       SAPE     H8Y      HAL2     0.900000E-01   1.00800           0
     15921 MEMB     20       SAPE     C39      CTL2    -0.180000       12.0110           0
     15922 MEMB     20       SAPE     H9X      HAL2     0.900000E-01   1.00800           0
     15923 MEMB     20       SAPE     H9Y      HAL2     0.900000E-01   1.00800           0
     15924 MEMB     20       SAPE     C310     CTL2    -0.180000       12.0110           0
     15925 MEMB     20       SAPE     H10X     HAL2     0.900000E-01   1.00800           0
     15926 MEMB     20       SAPE     H10Y     HAL2     0.900000E-01   1.00800           0
     15927 MEMB     20       SAPE     C311     CTL2    -0.180000       12.0110           0
     15928 MEMB     20       SAPE     H11X     HAL2     0.900000E-01   1.00800           0
     15929 MEMB     20       SAPE     H11Y     HAL2     0.900000E-01   1.00800           0
     15930 MEMB     20       SAPE     C312     CTL2    -0.180000       12.0110           0
     15931 MEMB     20       SAPE     H12X     HAL2     0.900000E-01   1.00800           0
     15932 MEMB     20       SAPE     H12Y     HAL2     0.900000E-01   1.00800           0
     15933 MEMB     20       SAPE     C313     CTL2    -0.180000       12.0110           0
     15934 MEMB     20       SAPE     H13X     HAL2     0.900000E-01   1.00800           0
     15935 MEMB     20       SAPE     H13Y     HAL2     0.900000E-01   1.00800           0
     15936 MEMB     20       SAPE     C314     CTL2    -0.180000       12.0110           0
     15937 MEMB     20       SAPE     H14X     HAL2     0.900000E-01   1.00800           0
     15938 MEMB     20       SAPE     H14Y     HAL2     0.900000E-01   1.00800           0
     15939 MEMB     20       SAPE     C315     CTL2    -0.180000       12.0110           0
     15940 MEMB     20       SAPE     H15X     HAL2     0.900000E-01   1.00800           0
     15941 MEMB     20       SAPE     H15Y     HAL2     0.900000E-01   1.00800           0
     15942 MEMB     20       SAPE     C316     CTL2    -0.180000       12.0110           0
     15943 MEMB     20       SAPE     H16X     HAL2     0.900000E-01   1.00800           0
     15944 MEMB     20       SAPE     H16Y     HAL2     0.900000E-01   1.00800           0
     15945 MEMB     20       SAPE     C317     CTL2    -0.180000       12.0110           0
     15946 MEMB     20       SAPE     H17X     HAL2     0.900000E-01   1.00800           0
     15947 MEMB     20       SAPE     H17Y     HAL2     0.900000E-01   1.00800           0
     15948 MEMB     20       SAPE     C318     CTL3    -0.270000       12.0110           0
     15949 MEMB     20       SAPE     H18X     HAL3     0.900000E-01   1.00800           0
     15950 MEMB     20       SAPE     H18Y     HAL3     0.900000E-01   1.00800           0
     15951 MEMB     20       SAPE     H18Z     HAL3     0.900000E-01   1.00800           0
     15952 MEMB     23       SAPE     N        NH3L    -0.300000       14.0070           0
     15953 MEMB     23       SAPE     HN1      HCL      0.330000       1.00800           0
     15954 MEMB     23       SAPE     HN2      HCL      0.330000       1.00800           0
     15955 MEMB     23       SAPE     HN3      HCL      0.330000       1.00800           0
     15956 MEMB     23       SAPE     C12      CTL2     0.130000       12.0110           0
     15957 MEMB     23       SAPE     H12A     HAL2     0.900000E-01   1.00800           0
     15958 MEMB     23       SAPE     H12B     HAL2     0.900000E-01   1.00800           0
     15959 MEMB     23       SAPE     C11      CTL2    -0.800000E-01   12.0110           0
     15960 MEMB     23       SAPE     H11A     HAL2     0.900000E-01   1.00800           0
     15961 MEMB     23       SAPE     H11B     HAL2     0.900000E-01   1.00800           0
     15962 MEMB     23       SAPE     P        PL       1.500000       30.9740           0
     15963 MEMB     23       SAPE     O13      O2L     -0.780000       15.9994           0
     15964 MEMB     23       SAPE     O14      O2L     -0.780000       15.9994           0
     15965 MEMB     23       SAPE     O12      OSLP    -0.570000       15.9994           0
     15966 MEMB     23       SAPE     O11      OSLP    -0.570000       15.9994           0
     15967 MEMB     23       SAPE     C1       CTL2    -0.800000E-01   12.0110           0
     15968 MEMB     23       SAPE     HA       HAL2     0.900000E-01   1.00800           0
     15969 MEMB     23       SAPE     HB       HAL2     0.900000E-01   1.00800           0
     15970 MEMB     23       SAPE     C2       CTL1     0.170000       12.0110           0
     15971 MEMB     23       SAPE     HS       HAL1     0.900000E-01   1.00800           0
     15972 MEMB     23       SAPE     O21      OSL     -0.490000       15.9994           0
     15973 MEMB     23       SAPE     C21      CL       0.900000       12.0110           0
     15974 MEMB     23       SAPE     O22      OBL     -0.630000       15.9994           0
     15975 MEMB     23       SAPE     C22      CTL2    -0.220000       12.0110           0
     15976 MEMB     23       SAPE     H2R      HAL2     0.900000E-01   1.00800           0
     15977 MEMB     23       SAPE     H2S      HAL2     0.900000E-01   1.00800           0
     15978 MEMB     23       SAPE     C3       CTL2     0.800000E-01   12.0110           0
     15979 MEMB     23       SAPE     HX       HAL2     0.900000E-01   1.00800           0
     15980 MEMB     23       SAPE     HY       HAL2     0.900000E-01   1.00800           0
     15981 MEMB     23       SAPE     O31      OSL     -0.490000       15.9994           0
     15982 MEMB     23       SAPE     C31      CL       0.900000       12.0110           0
     15983 MEMB     23       SAPE     O32      OBL     -0.630000       15.9994           0
     15984 MEMB     23       SAPE     C32      CTL2    -0.220000       12.0110           0
     15985 MEMB     23       SAPE     H2X      HAL2     0.900000E-01   1.00800           0
     15986 MEMB     23       SAPE     H2Y      HAL2     0.900000E-01   1.00800           0
     15987 MEMB     23       SAPE     C23      CTL2    -0.180000       12.0110           0
     15988 MEMB     23       SAPE     H3R      HAL2     0.900000E-01   1.00800           0
     15989 MEMB     23       SAPE     H3S      HAL2     0.900000E-01   1.00800           0
     15990 MEMB     23       SAPE     C24      CTL2    -0.180000       12.0110           0
     15991 MEMB     23       SAPE     H4R      HAL2     0.900000E-01   1.00800           0
     15992 MEMB     23       SAPE     H4S      HAL2     0.900000E-01   1.00800           0
     15993 MEMB     23       SAPE     C25      CEL1    -0.150000       12.0110           0
     15994 MEMB     23       SAPE     H5R      HEL1     0.150000       1.00800           0
     15995 MEMB     23       SAPE     C26      CEL1    -0.150000       12.0110           0
     15996 MEMB     23       SAPE     H6R      HEL1     0.150000       1.00800           0
     15997 MEMB     23       SAPE     C27      CTL2    -0.180000       12.0110           0
     15998 MEMB     23       SAPE     H7R      HAL2     0.900000E-01   1.00800           0
     15999 MEMB     23       SAPE     H7S      HAL2     0.900000E-01   1.00800           0
     16000 MEMB     23       SAPE     C28      CEL1    -0.150000       12.0110           0
     16001 MEMB     23       SAPE     H8R      HEL1     0.150000       1.00800           0
     16002 MEMB     23       SAPE     C29      CEL1    -0.150000       12.0110           0
     16003 MEMB     23       SAPE     H9R      HEL1     0.150000       1.00800           0
     16004 MEMB     23       SAPE     C210     CTL2    -0.180000       12.0110           0
     16005 MEMB     23       SAPE     H10R     HAL2     0.900000E-01   1.00800           0
     16006 MEMB     23       SAPE     H10S     HAL2     0.900000E-01   1.00800           0
     16007 MEMB     23       SAPE     C211     CEL1    -0.150000       12.0110           0
     16008 MEMB     23       SAPE     H11R     HEL1     0.150000       1.00800           0
     16009 MEMB     23       SAPE     C212     CEL1    -0.150000       12.0110           0
     16010 MEMB     23       SAPE     H12R     HEL1     0.150000       1.00800           0
     16011 MEMB     23       SAPE     C213     CTL2    -0.180000       12.0110           0
     16012 MEMB     23       SAPE     H13R     HAL2     0.900000E-01   1.00800           0
     16013 MEMB     23       SAPE     H13S     HAL2     0.900000E-01   1.00800           0
     16014 MEMB     23       SAPE     C214     CEL1    -0.150000       12.0110           0
     16015 MEMB     23       SAPE     H14R     HEL1     0.150000       1.00800           0
     16016 MEMB     23       SAPE     C215     CEL1    -0.150000       12.0110           0
     16017 MEMB     23       SAPE     H15R     HEL1     0.150000       1.00800           0
     16018 MEMB     23       SAPE     C216     CTL2    -0.180000       12.0110           0
     16019 MEMB     23       SAPE     H16R     HAL2     0.900000E-01   1.00800           0
     16020 MEMB     23       SAPE     H16S     HAL2     0.900000E-01   1.00800           0
     16021 MEMB     23       SAPE     C217     CTL2    -0.180000       12.0110           0
     16022 MEMB     23       SAPE     H17R     HAL2     0.900000E-01   1.00800           0
     16023 MEMB     23       SAPE     H17S     HAL2     0.900000E-01   1.00800           0
     16024 MEMB     23       SAPE     C218     CTL2    -0.180000       12.0110           0
     16025 MEMB     23       SAPE     H18R     HAL2     0.900000E-01   1.00800           0
     16026 MEMB     23       SAPE     H18S     HAL2     0.900000E-01   1.00800           0
     16027 MEMB     23       SAPE     C219     CTL2    -0.180000       12.0110           0
     16028 MEMB     23       SAPE     H19R     HAL2     0.900000E-01   1.00800           0
     16029 MEMB     23       SAPE     H19S     HAL2     0.900000E-01   1.00800           0
     16030 MEMB     23       SAPE     C220     CTL3    -0.270000       12.0110           0
     16031 MEMB     23       SAPE     H20R     HAL3     0.900000E-01   1.00800           0
     16032 MEMB     23       SAPE     H20S     HAL3     0.900000E-01   1.00800           0
     16033 MEMB     23       SAPE     H20T     HAL3     0.900000E-01   1.00800           0
     16034 MEMB     23       SAPE     C33      CTL2    -0.180000       12.0110           0
     16035 MEMB     23       SAPE     H3X      HAL2     0.900000E-01   1.00800           0
     16036 MEMB     23       SAPE     H3Y      HAL2     0.900000E-01   1.00800           0
     16037 MEMB     23       SAPE     C34      CTL2    -0.180000       12.0110           0
     16038 MEMB     23       SAPE     H4X      HAL2     0.900000E-01   1.00800           0
     16039 MEMB     23       SAPE     H4Y      HAL2     0.900000E-01   1.00800           0
     16040 MEMB     23       SAPE     C35      CTL2    -0.180000       12.0110           0
     16041 MEMB     23       SAPE     H5X      HAL2     0.900000E-01   1.00800           0
     16042 MEMB     23       SAPE     H5Y      HAL2     0.900000E-01   1.00800           0
     16043 MEMB     23       SAPE     C36      CTL2    -0.180000       12.0110           0
     16044 MEMB     23       SAPE     H6X      HAL2     0.900000E-01   1.00800           0
     16045 MEMB     23       SAPE     H6Y      HAL2     0.900000E-01   1.00800           0
     16046 MEMB     23       SAPE     C37      CTL2    -0.180000       12.0110           0
     16047 MEMB     23       SAPE     H7X      HAL2     0.900000E-01   1.00800           0
     16048 MEMB     23       SAPE     H7Y      HAL2     0.900000E-01   1.00800           0
     16049 MEMB     23       SAPE     C38      CTL2    -0.180000       12.0110           0
     16050 MEMB     23       SAPE     H8X      HAL2     0.900000E-01   1.00800           0
     16051 MEMB     23       SAPE     H8Y      HAL2     0.900000E-01   1.00800           0
     16052 MEMB     23       SAPE     C39      CTL2    -0.180000       12.0110           0
     16053 MEMB     23       SAPE     H9X      HAL2     0.900000E-01   1.00800           0
     16054 MEMB     23       SAPE     H9Y      HAL2     0.900000E-01   1.00800           0
     16055 MEMB     23       SAPE     C310     CTL2    -0.180000       12.0110           0
     16056 MEMB     23       SAPE     H10X     HAL2     0.900000E-01   1.00800           0
     16057 MEMB     23       SAPE     H10Y     HAL2     0.900000E-01   1.00800           0
     16058 MEMB     23       SAPE     C311     CTL2    -0.180000       12.0110           0
     16059 MEMB     23       SAPE     H11X     HAL2     0.900000E-01   1.00800           0
     16060 MEMB     23       SAPE     H11Y     HAL2     0.900000E-01   1.00800           0
     16061 MEMB     23       SAPE     C312     CTL2    -0.180000       12.0110           0
     16062 MEMB     23       SAPE     H12X     HAL2     0.900000E-01   1.00800           0
     16063 MEMB     23       SAPE     H12Y     HAL2     0.900000E-01   1.00800           0
     16064 MEMB     23       SAPE     C313     CTL2    -0.180000       12.0110           0
     16065 MEMB     23       SAPE     H13X     HAL2     0.900000E-01   1.00800           0
     16066 MEMB     23       SAPE     H13Y     HAL2     0.900000E-01   1.00800           0
     16067 MEMB     23       SAPE     C314     CTL2    -0.180000       12.0110           0
     16068 MEMB     23       SAPE     H14X     HAL2     0.900000E-01   1.00800           0
     16069 MEMB     23       SAPE     H14Y     HAL2     0.900000E-01   1.00800           0
     16070 MEMB     23       SAPE     C315     CTL2    -0.180000       12.0110           0
     16071 MEMB     23       SAPE     H15X     HAL2     0.900000E-01   1.00800           0
     16072 MEMB     23       SAPE     H15Y     HAL2     0.900000E-01   1.00800           0
     16073 MEMB     23       SAPE     C316     CTL2    -0.180000       12.0110           0
     16074 MEMB     23       SAPE     H16X     HAL2     0.900000E-01   1.00800           0
     16075 MEMB     23       SAPE     H16Y     HAL2     0.900000E-01   1.00800           0
     16076 MEMB     23       SAPE     C317     CTL2    -0.180000       12.0110           0
     16077 MEMB     23       SAPE     H17X     HAL2     0.900000E-01   1.00800           0
     16078 MEMB     23       SAPE     H17Y     HAL2     0.900000E-01   1.00800           0
     16079 MEMB     23       SAPE     C318     CTL3    -0.270000       12.0110           0
     16080 MEMB     23       SAPE     H18X     HAL3     0.900000E-01   1.00800           0
     16081 MEMB     23       SAPE     H18Y     HAL3     0.900000E-01   1.00800           0
     16082 MEMB     23       SAPE     H18Z     HAL3     0.900000E-01   1.00800           0
     16083 MEMB     27       SAPE     N        NH3L    -0.300000       14.0070           0
     16084 MEMB     27       SAPE     HN1      HCL      0.330000       1.00800           0
     16085 MEMB     27       SAPE     HN2      HCL      0.330000       1.00800           0
     16086 MEMB     27       SAPE     HN3      HCL      0.330000       1.00800           0
     16087 MEMB     27       SAPE     C12      CTL2     0.130000       12.0110           0
     16088 MEMB     27       SAPE     H12A     HAL2     0.900000E-01   1.00800           0
     16089 MEMB     27       SAPE     H12B     HAL2     0.900000E-01   1.00800           0
     16090 MEMB     27       SAPE     C11      CTL2    -0.800000E-01   12.0110           0
     16091 MEMB     27       SAPE     H11A     HAL2     0.900000E-01   1.00800           0
     16092 MEMB     27       SAPE     H11B     HAL2     0.900000E-01   1.00800           0
     16093 MEMB     27       SAPE     P        PL       1.500000       30.9740           0
     16094 MEMB     27       SAPE     O13      O2L     -0.780000       15.9994           0
     16095 MEMB     27       SAPE     O14      O2L     -0.780000       15.9994           0
     16096 MEMB     27       SAPE     O12      OSLP    -0.570000       15.9994           0
     16097 MEMB     27       SAPE     O11      OSLP    -0.570000       15.9994           0
     16098 MEMB     27       SAPE     C1       CTL2    -0.800000E-01   12.0110           0
     16099 MEMB     27       SAPE     HA       HAL2     0.900000E-01   1.00800           0
     16100 MEMB     27       SAPE     HB       HAL2     0.900000E-01   1.00800           0
     16101 MEMB     27       SAPE     C2       CTL1     0.170000       12.0110           0
     16102 MEMB     27       SAPE     HS       HAL1     0.900000E-01   1.00800           0
     16103 MEMB     27       SAPE     O21      OSL     -0.490000       15.9994           0
     16104 MEMB     27       SAPE     C21      CL       0.900000       12.0110           0
     16105 MEMB     27       SAPE     O22      OBL     -0.630000       15.9994           0
     16106 MEMB     27       SAPE     C22      CTL2    -0.220000       12.0110           0
     16107 MEMB     27       SAPE     H2R      HAL2     0.900000E-01   1.00800           0
     16108 MEMB     27       SAPE     H2S      HAL2     0.900000E-01   1.00800           0
     16109 MEMB     27       SAPE     C3       CTL2     0.800000E-01   12.0110           0
     16110 MEMB     27       SAPE     HX       HAL2     0.900000E-01   1.00800           0
     16111 MEMB     27       SAPE     HY       HAL2     0.900000E-01   1.00800           0
     16112 MEMB     27       SAPE     O31      OSL     -0.490000       15.9994           0
     16113 MEMB     27       SAPE     C31      CL       0.900000       12.0110           0
     16114 MEMB     27       SAPE     O32      OBL     -0.630000       15.9994           0
     16115 MEMB     27       SAPE     C32      CTL2    -0.220000       12.0110           0
     16116 MEMB     27       SAPE     H2X      HAL2     0.900000E-01   1.00800           0
     16117 MEMB     27       SAPE     H2Y      HAL2     0.900000E-01   1.00800           0
     16118 MEMB     27       SAPE     C23      CTL2    -0.180000       12.0110           0
     16119 MEMB     27       SAPE     H3R      HAL2     0.900000E-01   1.00800           0
     16120 MEMB     27       SAPE     H3S      HAL2     0.900000E-01   1.00800           0
     16121 MEMB     27       SAPE     C24      CTL2    -0.180000       12.0110           0
     16122 MEMB     27       SAPE     H4R      HAL2     0.900000E-01   1.00800           0
     16123 MEMB     27       SAPE     H4S      HAL2     0.900000E-01   1.00800           0
     16124 MEMB     27       SAPE     C25      CEL1    -0.150000       12.0110           0
     16125 MEMB     27       SAPE     H5R      HEL1     0.150000       1.00800           0
     16126 MEMB     27       SAPE     C26      CEL1    -0.150000       12.0110           0
     16127 MEMB     27       SAPE     H6R      HEL1     0.150000       1.00800           0
     16128 MEMB     27       SAPE     C27      CTL2    -0.180000       12.0110           0
     16129 MEMB     27       SAPE     H7R      HAL2     0.900000E-01   1.00800           0
     16130 MEMB     27       SAPE     H7S      HAL2     0.900000E-01   1.00800           0
     16131 MEMB     27       SAPE     C28      CEL1    -0.150000       12.0110           0
     16132 MEMB     27       SAPE     H8R      HEL1     0.150000       1.00800           0
     16133 MEMB     27       SAPE     C29      CEL1    -0.150000       12.0110           0
     16134 MEMB     27       SAPE     H9R      HEL1     0.150000       1.00800           0
     16135 MEMB     27       SAPE     C210     CTL2    -0.180000       12.0110           0
     16136 MEMB     27       SAPE     H10R     HAL2     0.900000E-01   1.00800           0
     16137 MEMB     27       SAPE     H10S     HAL2     0.900000E-01   1.00800           0
     16138 MEMB     27       SAPE     C211     CEL1    -0.150000       12.0110           0
     16139 MEMB     27       SAPE     H11R     HEL1     0.150000       1.00800           0
     16140 MEMB     27       SAPE     C212     CEL1    -0.150000       12.0110           0
     16141 MEMB     27       SAPE     H12R     HEL1     0.150000       1.00800           0
     16142 MEMB     27       SAPE     C213     CTL2    -0.180000       12.0110           0
     16143 MEMB     27       SAPE     H13R     HAL2     0.900000E-01   1.00800           0
     16144 MEMB     27       SAPE     H13S     HAL2     0.900000E-01   1.00800           0
     16145 MEMB     27       SAPE     C214     CEL1    -0.150000       12.0110           0
     16146 MEMB     27       SAPE     H14R     HEL1     0.150000       1.00800           0
     16147 MEMB     27       SAPE     C215     CEL1    -0.150000       12.0110           0
     16148 MEMB     27       SAPE     H15R     HEL1     0.150000       1.00800           0
     16149 MEMB     27       SAPE     C216     CTL2    -0.180000       12.0110           0
     16150 MEMB     27       SAPE     H16R     HAL2     0.900000E-01   1.00800           0
     16151 MEMB     27       SAPE     H16S     HAL2     0.900000E-01   1.00800           0
     16152 MEMB     27       SAPE     C217     CTL2    -0.180000       12.0110           0
     16153 MEMB     27       SAPE     H17R     HAL2     0.900000E-01   1.00800           0
     16154 MEMB     27       SAPE     H17S     HAL2     0.900000E-01   1.00800           0
     16155 MEMB     27       SAPE     C218     CTL2    -0.180000       12.0110           0
     16156 MEMB     27       SAPE     H18R     HAL2     0.900000E-01   1.00800           0
     16157 MEMB     27       SAPE     H18S     HAL2     0.900000E-01   1.00800           0
     16158 MEMB     27       SAPE     C219     CTL2    -0.180000       12.0110           0
     16159 MEMB     27       SAPE     H19R     HAL2     0.900000E-01   1.00800           0
     16160 MEMB     27       SAPE     H19S     HAL2     0.900000E-01   1.00800           0
     16161 MEMB     27       SAPE     C220     CTL3    -0.270000       12.0110           0
     16162 MEMB     27       SAPE     H20R     HAL3     0.900000E-01   1.00800           0
     16163 MEMB     27       SAPE     H20S     HAL3     0.900000E-01   1.00800           0
     16164 MEMB     27       SAPE     H20T     HAL3     0.900000E-01   1.00800           0
     16165 MEMB     27       SAPE     C33      CTL2    -0.180000       12.0110           0
     16166 MEMB     27       SAPE     H3X      HAL2     0.900000E-01   1.00800           0
     16167 MEMB     27       SAPE     H3Y      HAL2     0.900000E-01   1.00800           0
     16168 MEMB     27       SAPE     C34      CTL2    -0.180000       12.0110           0
     16169 MEMB     27       SAPE     H4X      HAL2     0.900000E-01   1.00800           0
     16170 MEMB     27       SAPE     H4Y      HAL2     0.900000E-01   1.00800           0
     16171 MEMB     27       SAPE     C35      CTL2    -0.180000       12.0110           0
     16172 MEMB     27       SAPE     H5X      HAL2     0.900000E-01   1.00800           0
     16173 MEMB     27       SAPE     H5Y      HAL2     0.900000E-01   1.00800           0
     16174 MEMB     27       SAPE     C36      CTL2    -0.180000       12.0110           0
     16175 MEMB     27       SAPE     H6X      HAL2     0.900000E-01   1.00800           0
     16176 MEMB     27       SAPE     H6Y      HAL2     0.900000E-01   1.00800           0
     16177 MEMB     27       SAPE     C37      CTL2    -0.180000       12.0110           0
     16178 MEMB     27       SAPE     H7X      HAL2     0.900000E-01   1.00800           0
     16179 MEMB     27       SAPE     H7Y      HAL2     0.900000E-01   1.00800           0
     16180 MEMB     27       SAPE     C38      CTL2    -0.180000       12.0110           0
     16181 MEMB     27       SAPE     H8X      HAL2     0.900000E-01   1.00800           0
     16182 MEMB     27       SAPE     H8Y      HAL2     0.900000E-01   1.00800           0
     16183 MEMB     27       SAPE     C39      CTL2    -0.180000       12.0110           0
     16184 MEMB     27       SAPE     H9X      HAL2     0.900000E-01   1.00800           0
     16185 MEMB     27       SAPE     H9Y      HAL2     0.900000E-01   1.00800           0
     16186 MEMB     27       SAPE     C310     CTL2    -0.180000       12.0110           0
     16187 MEMB     27       SAPE     H10X     HAL2     0.900000E-01   1.00800           0
     16188 MEMB     27       SAPE     H10Y     HAL2     0.900000E-01   1.00800           0
     16189 MEMB     27       SAPE     C311     CTL2    -0.180000       12.0110           0
     16190 MEMB     27       SAPE     H11X     HAL2     0.900000E-01   1.00800           0
     16191 MEMB     27       SAPE     H11Y     HAL2     0.900000E-01   1.00800           0
     16192 MEMB     27       SAPE     C312     CTL2    -0.180000       12.0110           0
     16193 MEMB     27       SAPE     H12X     HAL2     0.900000E-01   1.00800           0
     16194 MEMB     27       SAPE     H12Y     HAL2     0.900000E-01   1.00800           0
     16195 MEMB     27       SAPE     C313     CTL2    -0.180000       12.0110           0
     16196 MEMB     27       SAPE     H13X     HAL2     0.900000E-01   1.00800           0
     16197 MEMB     27       SAPE     H13Y     HAL2     0.900000E-01   1.00800           0
     16198 MEMB     27       SAPE     C314     CTL2    -0.180000       12.0110           0
     16199 MEMB     27       SAPE     H14X     HAL2     0.900000E-01   1.00800           0
     16200 MEMB     27       SAPE     H14Y     HAL2     0.900000E-01   1.00800           0
     16201 MEMB     27       SAPE     C315     CTL2    -0.180000       12.0110           0
     16202 MEMB     27       SAPE     H15X     HAL2     0.900000E-01   1.00800           0
     16203 MEMB     27       SAPE     H15Y     HAL2     0.900000E-01   1.00800           0
     16204 MEMB     27       SAPE     C316     CTL2    -0.180000       12.0110           0
     16205 MEMB     27       SAPE     H16X     HAL2     0.900000E-01   1.00800           0
     16206 MEMB     27       SAPE     H16Y     HAL2     0.900000E-01   1.00800           0
     16207 MEMB     27       SAPE     C317     CTL2    -0.180000       12.0110           0
     16208 MEMB     27       SAPE     H17X     HAL2     0.900000E-01   1.00800           0
     16209 MEMB     27       SAPE     H17Y     HAL2     0.900000E-01   1.00800           0
     16210 MEMB     27       SAPE     C318     CTL3    -0.270000       12.0110           0
     16211 MEMB     27       SAPE     H18X     HAL3     0.900000E-01   1.00800           0
     16212 MEMB     27       SAPE     H18Y     HAL3     0.900000E-01   1.00800           0
     16213 MEMB     27       SAPE     H18Z     HAL3     0.900000E-01   1.00800           0
     16214 MEMB     28       SAPE     N        NH3L    -0.300000       14.0070           0
     16215 MEMB     28       SAPE     HN1      HCL      0.330000       1.00800           0
     16216 MEMB     28       SAPE     HN2      HCL      0.330000       1.00800           0
     16217 MEMB     28       SAPE     HN3      HCL      0.330000       1.00800           0
     16218 MEMB     28       SAPE     C12      CTL2     0.130000       12.0110           0
     16219 MEMB     28       SAPE     H12A     HAL2     0.900000E-01   1.00800           0
     16220 MEMB     28       SAPE     H12B     HAL2     0.900000E-01   1.00800           0
     16221 MEMB     28       SAPE     C11      CTL2    -0.800000E-01   12.0110           0
     16222 MEMB     28       SAPE     H11A     HAL2     0.900000E-01   1.00800           0
     16223 MEMB     28       SAPE     H11B     HAL2     0.900000E-01   1.00800           0
     16224 MEMB     28       SAPE     P        PL       1.500000       30.9740           0
     16225 MEMB     28       SAPE     O13      O2L     -0.780000       15.9994           0
     16226 MEMB     28       SAPE     O14      O2L     -0.780000       15.9994           0
     16227 MEMB     28       SAPE     O12      OSLP    -0.570000       15.9994           0
     16228 MEMB     28       SAPE     O11      OSLP    -0.570000       15.9994           0
     16229 MEMB     28       SAPE     C1       CTL2    -0.800000E-01   12.0110           0
     16230 MEMB     28       SAPE     HA       HAL2     0.900000E-01   1.00800           0
     16231 MEMB     28       SAPE     HB       HAL2     0.900000E-01   1.00800           0
     16232 MEMB     28       SAPE     C2       CTL1     0.170000       12.0110           0
     16233 MEMB     28       SAPE     HS       HAL1     0.900000E-01   1.00800           0
     16234 MEMB     28       SAPE     O21      OSL     -0.490000       15.9994           0
     16235 MEMB     28       SAPE     C21      CL       0.900000       12.0110           0
     16236 MEMB     28       SAPE     O22      OBL     -0.630000       15.9994           0
     16237 MEMB     28       SAPE     C22      CTL2    -0.220000       12.0110           0
     16238 MEMB     28       SAPE     H2R      HAL2     0.900000E-01   1.00800           0
     16239 MEMB     28       SAPE     H2S      HAL2     0.900000E-01   1.00800           0
     16240 MEMB     28       SAPE     C3       CTL2     0.800000E-01   12.0110           0
     16241 MEMB     28       SAPE     HX       HAL2     0.900000E-01   1.00800           0
     16242 MEMB     28       SAPE     HY       HAL2     0.900000E-01   1.00800           0
     16243 MEMB     28       SAPE     O31      OSL     -0.490000       15.9994           0
     16244 MEMB     28       SAPE     C31      CL       0.900000       12.0110           0
     16245 MEMB     28       SAPE     O32      OBL     -0.630000       15.9994           0
     16246 MEMB     28       SAPE     C32      CTL2    -0.220000       12.0110           0
     16247 MEMB     28       SAPE     H2X      HAL2     0.900000E-01   1.00800           0
     16248 MEMB     28       SAPE     H2Y      HAL2     0.900000E-01   1.00800           0
     16249 MEMB     28       SAPE     C23      CTL2    -0.180000       12.0110           0
     16250 MEMB     28       SAPE     H3R      HAL2     0.900000E-01   1.00800           0
     16251 MEMB     28       SAPE     H3S      HAL2     0.900000E-01   1.00800           0
     16252 MEMB     28       SAPE     C24      CTL2    -0.180000       12.0110           0
     16253 MEMB     28       SAPE     H4R      HAL2     0.900000E-01   1.00800           0
     16254 MEMB     28       SAPE     H4S      HAL2     0.900000E-01   1.00800           0
     16255 MEMB     28       SAPE     C25      CEL1    -0.150000       12.0110           0
     16256 MEMB     28       SAPE     H5R      HEL1     0.150000       1.00800           0
     16257 MEMB     28       SAPE     C26      CEL1    -0.150000       12.0110           0
     16258 MEMB     28       SAPE     H6R      HEL1     0.150000       1.00800           0
     16259 MEMB     28       SAPE     C27      CTL2    -0.180000       12.0110           0
     16260 MEMB     28       SAPE     H7R      HAL2     0.900000E-01   1.00800           0
     16261 MEMB     28       SAPE     H7S      HAL2     0.900000E-01   1.00800           0
     16262 MEMB     28       SAPE     C28      CEL1    -0.150000       12.0110           0
     16263 MEMB     28       SAPE     H8R      HEL1     0.150000       1.00800           0
     16264 MEMB     28       SAPE     C29      CEL1    -0.150000       12.0110           0
     16265 MEMB     28       SAPE     H9R      HEL1     0.150000       1.00800           0
     16266 MEMB     28       SAPE     C210     CTL2    -0.180000       12.0110           0
     16267 MEMB     28       SAPE     H10R     HAL2     0.900000E-01   1.00800           0
     16268 MEMB     28       SAPE     H10S     HAL2     0.900000E-01   1.00800           0
     16269 MEMB     28       SAPE     C211     CEL1    -0.150000       12.0110           0
     16270 MEMB     28       SAPE     H11R     HEL1     0.150000       1.00800           0
     16271 MEMB     28       SAPE     C212     CEL1    -0.150000       12.0110           0
     16272 MEMB     28       SAPE     H12R     HEL1     0.150000       1.00800           0
     16273 MEMB     28       SAPE     C213     CTL2    -0.180000       12.0110           0
     16274 MEMB     28       SAPE     H13R     HAL2     0.900000E-01   1.00800           0
     16275 MEMB     28       SAPE     H13S     HAL2     0.900000E-01   1.00800           0
     16276 MEMB     28       SAPE     C214     CEL1    -0.150000       12.0110           0
     16277 MEMB     28       SAPE     H14R     HEL1     0.150000       1.00800           0
     16278 MEMB     28       SAPE     C215     CEL1    -0.150000       12.0110           0
     16279 MEMB     28       SAPE     H15R     HEL1     0.150000       1.00800           0
     16280 MEMB     28       SAPE     C216     CTL2    -0.180000       12.0110           0
     16281 MEMB     28       SAPE     H16R     HAL2     0.900000E-01   1.00800           0
     16282 MEMB     28       SAPE     H16S     HAL2     0.900000E-01   1.00800           0
     16283 MEMB     28       SAPE     C217     CTL2    -0.180000       12.0110           0
     16284 MEMB     28       SAPE     H17R     HAL2     0.900000E-01   1.00800           0
     16285 MEMB     28       SAPE     H17S     HAL2     0.900000E-01   1.00800           0
     16286 MEMB     28       SAPE     C218     CTL2    -0.180000       12.0110           0
     16287 MEMB     28       SAPE     H18R     HAL2     0.900000E-01   1.00800           0
     16288 MEMB     28       SAPE     H18S     HAL2     0.900000E-01   1.00800           0
     16289 MEMB     28       SAPE     C219     CTL2    -0.180000       12.0110           0
     16290 MEMB     28       SAPE     H19R     HAL2     0.900000E-01   1.00800           0
     16291 MEMB     28       SAPE     H19S     HAL2     0.900000E-01   1.00800           0
     16292 MEMB     28       SAPE     C220     CTL3    -0.270000       12.0110           0
     16293 MEMB     28       SAPE     H20R     HAL3     0.900000E-01   1.00800           0
     16294 MEMB     28       SAPE     H20S     HAL3     0.900000E-01   1.00800           0
     16295 MEMB     28       SAPE     H20T     HAL3     0.900000E-01   1.00800           0
     16296 MEMB     28       SAPE     C33      CTL2    -0.180000       12.0110           0
     16297 MEMB     28       SAPE     H3X      HAL2     0.900000E-01   1.00800           0
     16298 MEMB     28       SAPE     H3Y      HAL2     0.900000E-01   1.00800           0
     16299 MEMB     28       SAPE     C34      CTL2    -0.180000       12.0110           0
     16300 MEMB     28       SAPE     H4X      HAL2     0.900000E-01   1.00800           0
     16301 MEMB     28       SAPE     H4Y      HAL2     0.900000E-01   1.00800           0
     16302 MEMB     28       SAPE     C35      CTL2    -0.180000       12.0110           0
     16303 MEMB     28       SAPE     H5X      HAL2     0.900000E-01   1.00800           0
     16304 MEMB     28       SAPE     H5Y      HAL2     0.900000E-01   1.00800           0
     16305 MEMB     28       SAPE     C36      CTL2    -0.180000       12.0110           0
     16306 MEMB     28       SAPE     H6X      HAL2     0.900000E-01   1.00800           0
     16307 MEMB     28       SAPE     H6Y      HAL2     0.900000E-01   1.00800           0
     16308 MEMB     28       SAPE     C37      CTL2    -0.180000       12.0110           0
     16309 MEMB     28       SAPE     H7X      HAL2     0.900000E-01   1.00800           0
     16310 MEMB     28       SAPE     H7Y      HAL2     0.900000E-01   1.00800           0
     16311 MEMB     28       SAPE     C38      CTL2    -0.180000       12.0110           0
     16312 MEMB     28       SAPE     H8X      HAL2     0.900000E-01   1.00800           0
     16313 MEMB     28       SAPE     H8Y      HAL2     0.900000E-01   1.00800           0
     16314 MEMB     28       SAPE     C39      CTL2    -0.180000       12.0110           0
     16315 MEMB     28       SAPE     H9X      HAL2     0.900000E-01   1.00800           0
     16316 MEMB     28       SAPE     H9Y      HAL2     0.900000E-01   1.00800           0
     16317 MEMB     28       SAPE     C310     CTL2    -0.180000       12.0110           0
     16318 MEMB     28       SAPE     H10X     HAL2     0.900000E-01   1.00800           0
     16319 MEMB     28       SAPE     H10Y     HAL2     0.900000E-01   1.00800           0
     16320 MEMB     28       SAPE     C311     CTL2    -0.180000       12.0110           0
     16321 MEMB     28       SAPE     H11X     HAL2     0.900000E-01   1.00800           0
     16322 MEMB     28       SAPE     H11Y     HAL2     0.900000E-01   1.00800           0
     16323 MEMB     28       SAPE     C312     CTL2    -0.180000       12.0110           0
     16324 MEMB     28       SAPE     H12X     HAL2     0.900000E-01   1.00800           0
     16325 MEMB     28       SAPE     H12Y     HAL2     0.900000E-01   1.00800           0
     16326 MEMB     28       SAPE     C313     CTL2    -0.180000       12.0110           0
     16327 MEMB     28       SAPE     H13X     HAL2     0.900000E-01   1.00800           0
     16328 MEMB     28       SAPE     H13Y     HAL2     0.900000E-01   1.00800           0
     16329 MEMB     28       SAPE     C314     CTL2    -0.180000       12.0110           0
     16330 MEMB     28       SAPE     H14X     HAL2     0.900000E-01   1.00800           0
     16331 MEMB     28       SAPE     H14Y     HAL2     0.900000E-01   1.00800           0
     16332 MEMB     28       SAPE     C315     CTL2    -0.180000       12.0110           0
     16333 MEMB     28       SAPE     H15X     HAL2     0.900000E-01   1.00800           0
     16334 MEMB     28       SAPE     H15Y     HAL2     0.900000E-01   1.00800           0
     16335 MEMB     28       SAPE     C316     CTL2    -0.180000       12.0110           0
     16336 MEMB     28       SAPE     H16X     HAL2     0.900000E-01   1.00800           0
     16337 MEMB     28       SAPE     H16Y     HAL2     0.900000E-01   1.00800           0
     16338 MEMB     28       SAPE     C317     CTL2    -0.180000       12.0110           0
     16339 MEMB     28       SAPE     H17X     HAL2     0.900000E-01   1.00800           0
     16340 MEMB     28       SAPE     H17Y     HAL2     0.900000E-01   1.00800           0
     16341 MEMB     28       SAPE     C318     CTL3    -0.270000       12.0110           0
     16342 MEMB     28       SAPE     H18X     HAL3     0.900000E-01   1.00800           0
     16343 MEMB     28       SAPE     H18Y     HAL3     0.900000E-01   1.00800           0
     16344 MEMB     28       SAPE     H18Z     HAL3     0.900000E-01   1.00800           0
     16345 MEMB     29       SAPE     N        NH3L    -0.300000       14.0070           0
     16346 MEMB     29       SAPE     HN1      HCL      0.330000       1.00800           0
     16347 MEMB     29       SAPE     HN2      HCL      0.330000       1.00800           0
     16348 MEMB     29       SAPE     HN3      HCL      0.330000       1.00800           0
     16349 MEMB     29       SAPE     C12      CTL2     0.130000       12.0110           0
     16350 MEMB     29       SAPE     H12A     HAL2     0.900000E-01   1.00800           0
     16351 MEMB     29       SAPE     H12B     HAL2     0.900000E-01   1.00800           0
     16352 MEMB     29       SAPE     C11      CTL2    -0.800000E-01   12.0110           0
     16353 MEMB     29       SAPE     H11A     HAL2     0.900000E-01   1.00800           0
     16354 MEMB     29       SAPE     H11B     HAL2     0.900000E-01   1.00800           0
     16355 MEMB     29       SAPE     P        PL       1.500000       30.9740           0
     16356 MEMB     29       SAPE     O13      O2L     -0.780000       15.9994           0
     16357 MEMB     29       SAPE     O14      O2L     -0.780000       15.9994           0
     16358 MEMB     29       SAPE     O12      OSLP    -0.570000       15.9994           0
     16359 MEMB     29       SAPE     O11      OSLP    -0.570000       15.9994           0
     16360 MEMB     29       SAPE     C1       CTL2    -0.800000E-01   12.0110           0
     16361 MEMB     29       SAPE     HA       HAL2     0.900000E-01   1.00800           0
     16362 MEMB     29       SAPE     HB       HAL2     0.900000E-01   1.00800           0
     16363 MEMB     29       SAPE     C2       CTL1     0.170000       12.0110           0
     16364 MEMB     29       SAPE     HS       HAL1     0.900000E-01   1.00800           0
     16365 MEMB     29       SAPE     O21      OSL     -0.490000       15.9994           0
     16366 MEMB     29       SAPE     C21      CL       0.900000       12.0110           0
     16367 MEMB     29       SAPE     O22      OBL     -0.630000       15.9994           0
     16368 MEMB     29       SAPE     C22      CTL2    -0.220000       12.0110           0
     16369 MEMB     29       SAPE     H2R      HAL2     0.900000E-01   1.00800           0
     16370 MEMB     29       SAPE     H2S      HAL2     0.900000E-01   1.00800           0
     16371 MEMB     29       SAPE     C3       CTL2     0.800000E-01   12.0110           0
     16372 MEMB     29       SAPE     HX       HAL2     0.900000E-01   1.00800           0
     16373 MEMB     29       SAPE     HY       HAL2     0.900000E-01   1.00800           0
     16374 MEMB     29       SAPE     O31      OSL     -0.490000       15.9994           0
     16375 MEMB     29       SAPE     C31      CL       0.900000       12.0110           0
     16376 MEMB     29       SAPE     O32      OBL     -0.630000       15.9994           0
     16377 MEMB     29       SAPE     C32      CTL2    -0.220000       12.0110           0
     16378 MEMB     29       SAPE     H2X      HAL2     0.900000E-01   1.00800           0
     16379 MEMB     29       SAPE     H2Y      HAL2     0.900000E-01   1.00800           0
     16380 MEMB     29       SAPE     C23      CTL2    -0.180000       12.0110           0
     16381 MEMB     29       SAPE     H3R      HAL2     0.900000E-01   1.00800           0
     16382 MEMB     29       SAPE     H3S      HAL2     0.900000E-01   1.00800           0
     16383 MEMB     29       SAPE     C24      CTL2    -0.180000       12.0110           0
     16384 MEMB     29       SAPE     H4R      HAL2     0.900000E-01   1.00800           0
     16385 MEMB     29       SAPE     H4S      HAL2     0.900000E-01   1.00800           0
     16386 MEMB     29       SAPE     C25      CEL1    -0.150000       12.0110           0
     16387 MEMB     29       SAPE     H5R      HEL1     0.150000       1.00800           0
     16388 MEMB     29       SAPE     C26      CEL1    -0.150000       12.0110           0
     16389 MEMB     29       SAPE     H6R      HEL1     0.150000       1.00800           0
     16390 MEMB     29       SAPE     C27      CTL2    -0.180000       12.0110           0
     16391 MEMB     29       SAPE     H7R      HAL2     0.900000E-01   1.00800           0
     16392 MEMB     29       SAPE     H7S      HAL2     0.900000E-01   1.00800           0
     16393 MEMB     29       SAPE     C28      CEL1    -0.150000       12.0110           0
     16394 MEMB     29       SAPE     H8R      HEL1     0.150000       1.00800           0
     16395 MEMB     29       SAPE     C29      CEL1    -0.150000       12.0110           0
     16396 MEMB     29       SAPE     H9R      HEL1     0.150000       1.00800           0
     16397 MEMB     29       SAPE     C210     CTL2    -0.180000       12.0110           0
     16398 MEMB     29       SAPE     H10R     HAL2     0.900000E-01   1.00800           0
     16399 MEMB     29       SAPE     H10S     HAL2     0.900000E-01   1.00800           0
     16400 MEMB     29       SAPE     C211     CEL1    -0.150000       12.0110           0
     16401 MEMB     29       SAPE     H11R     HEL1     0.150000       1.00800           0
     16402 MEMB     29       SAPE     C212     CEL1    -0.150000       12.0110           0
     16403 MEMB     29       SAPE     H12R     HEL1     0.150000       1.00800           0
     16404 MEMB     29       SAPE     C213     CTL2    -0.180000       12.0110           0
     16405 MEMB     29       SAPE     H13R     HAL2     0.900000E-01   1.00800           0
     16406 MEMB     29       SAPE     H13S     HAL2     0.900000E-01   1.00800           0
     16407 MEMB     29       SAPE     C214     CEL1    -0.150000       12.0110           0
     16408 MEMB     29       SAPE     H14R     HEL1     0.150000       1.00800           0
     16409 MEMB     29       SAPE     C215     CEL1    -0.150000       12.0110           0
     16410 MEMB     29       SAPE     H15R     HEL1     0.150000       1.00800           0
     16411 MEMB     29       SAPE     C216     CTL2    -0.180000       12.0110           0
     16412 MEMB     29       SAPE     H16R     HAL2     0.900000E-01   1.00800           0
     16413 MEMB     29       SAPE     H16S     HAL2     0.900000E-01   1.00800           0
     16414 MEMB     29       SAPE     C217     CTL2    -0.180000       12.0110           0
     16415 MEMB     29       SAPE     H17R     HAL2     0.900000E-01   1.00800           0
     16416 MEMB     29       SAPE     H17S     HAL2     0.900000E-01   1.00800           0
     16417 MEMB     29       SAPE     C218     CTL2    -0.180000       12.0110           0
     16418 MEMB     29       SAPE     H18R     HAL2     0.900000E-01   1.00800           0
     16419 MEMB     29       SAPE     H18S     HAL2     0.900000E-01   1.00800           0
     16420 MEMB     29       SAPE     C219     CTL2    -0.180000       12.0110           0
     16421 MEMB     29       SAPE     H19R     HAL2     0.900000E-01   1.00800           0
     16422 MEMB     29       SAPE     H19S     HAL2     0.900000E-01   1.00800           0
     16423 MEMB     29       SAPE     C220     CTL3    -0.270000       12.0110           0
     16424 MEMB     29       SAPE     H20R     HAL3     0.900000E-01   1.00800           0
     16425 MEMB     29       SAPE     H20S     HAL3     0.900000E-01   1.00800           0
     16426 MEMB     29       SAPE     H20T     HAL3     0.900000E-01   1.00800           0
     16427 MEMB     29       SAPE     C33      CTL2    -0.180000       12.0110           0
     16428 MEMB     29       SAPE     H3X      HAL2     0.900000E-01   1.00800           0
     16429 MEMB     29       SAPE     H3Y      HAL2     0.900000E-01   1.00800           0
     16430 MEMB     29       SAPE     C34      CTL2    -0.180000       12.0110           0
     16431 MEMB     29       SAPE     H4X      HAL2     0.900000E-01   1.00800           0
     16432 MEMB     29       SAPE     H4Y      HAL2     0.900000E-01   1.00800           0
     16433 MEMB     29       SAPE     C35      CTL2    -0.180000       12.0110           0
     16434 MEMB     29       SAPE     H5X      HAL2     0.900000E-01   1.00800           0
     16435 MEMB     29       SAPE     H5Y      HAL2     0.900000E-01   1.00800           0
     16436 MEMB     29       SAPE     C36      CTL2    -0.180000       12.0110           0
     16437 MEMB     29       SAPE     H6X      HAL2     0.900000E-01   1.00800           0
     16438 MEMB     29       SAPE     H6Y      HAL2     0.900000E-01   1.00800           0
     16439 MEMB     29       SAPE     C37      CTL2    -0.180000       12.0110           0
     16440 MEMB     29       SAPE     H7X      HAL2     0.900000E-01   1.00800           0
     16441 MEMB     29       SAPE     H7Y      HAL2     0.900000E-01   1.00800           0
     16442 MEMB     29       SAPE     C38      CTL2    -0.180000       12.0110           0
     16443 MEMB     29       SAPE     H8X      HAL2     0.900000E-01   1.00800           0
     16444 MEMB     29       SAPE     H8Y      HAL2     0.900000E-01   1.00800           0
     16445 MEMB     29       SAPE     C39      CTL2    -0.180000       12.0110           0
     16446 MEMB     29       SAPE     H9X      HAL2     0.900000E-01   1.00800           0
     16447 MEMB     29       SAPE     H9Y      HAL2     0.900000E-01   1.00800           0
     16448 MEMB     29       SAPE     C310     CTL2    -0.180000       12.0110           0
     16449 MEMB     29       SAPE     H10X     HAL2     0.900000E-01   1.00800           0
     16450 MEMB     29       SAPE     H10Y     HAL2     0.900000E-01   1.00800           0
     16451 MEMB     29       SAPE     C311     CTL2    -0.180000       12.0110           0
     16452 MEMB     29       SAPE     H11X     HAL2     0.900000E-01   1.00800           0
     16453 MEMB     29       SAPE     H11Y     HAL2     0.900000E-01   1.00800           0
     16454 MEMB     29       SAPE     C312     CTL2    -0.180000       12.0110           0
     16455 MEMB     29       SAPE     H12X     HAL2     0.900000E-01   1.00800           0
     16456 MEMB     29       SAPE     H12Y     HAL2     0.900000E-01   1.00800           0
     16457 MEMB     29       SAPE     C313     CTL2    -0.180000       12.0110           0
     16458 MEMB     29       SAPE     H13X     HAL2     0.900000E-01   1.00800           0
     16459 MEMB     29       SAPE     H13Y     HAL2     0.900000E-01   1.00800           0
     16460 MEMB     29       SAPE     C314     CTL2    -0.180000       12.0110           0
     16461 MEMB     29       SAPE     H14X     HAL2     0.900000E-01   1.00800           0
     16462 MEMB     29       SAPE     H14Y     HAL2     0.900000E-01   1.00800           0
     16463 MEMB     29       SAPE     C315     CTL2    -0.180000       12.0110           0
     16464 MEMB     29       SAPE     H15X     HAL2     0.900000E-01   1.00800           0
     16465 MEMB     29       SAPE     H15Y     HAL2     0.900000E-01   1.00800           0
     16466 MEMB     29       SAPE     C316     CTL2    -0.180000       12.0110           0
     16467 MEMB     29       SAPE     H16X     HAL2     0.900000E-01   1.00800           0
     16468 MEMB     29       SAPE     H16Y     HAL2     0.900000E-01   1.00800           0
     16469 MEMB     29       SAPE     C317     CTL2    -0.180000       12.0110           0
     16470 MEMB     29       SAPE     H17X     HAL2     0.900000E-01   1.00800           0
     16471 MEMB     29       SAPE     H17Y     HAL2     0.900000E-01   1.00800           0
     16472 MEMB     29       SAPE     C318     CTL3    -0.270000       12.0110           0
     16473 MEMB     29       SAPE     H18X     HAL3     0.900000E-01   1.00800           0
     16474 MEMB     29       SAPE     H18Y     HAL3     0.900000E-01   1.00800           0
     16475 MEMB     29       SAPE     H18Z     HAL3     0.900000E-01   1.00800           0
     16476 MEMB     31       SAPE     N        NH3L    -0.300000       14.0070           0
     16477 MEMB     31       SAPE     HN1      HCL      0.330000       1.00800           0
     16478 MEMB     31       SAPE     HN2      HCL      0.330000       1.00800           0
     16479 MEMB     31       SAPE     HN3      HCL      0.330000       1.00800           0
     16480 MEMB     31       SAPE     C12      CTL2     0.130000       12.0110           0
     16481 MEMB     31       SAPE     H12A     HAL2     0.900000E-01   1.00800           0
     16482 MEMB     31       SAPE     H12B     HAL2     0.900000E-01   1.00800           0
     16483 MEMB     31       SAPE     C11      CTL2    -0.800000E-01   12.0110           0
     16484 MEMB     31       SAPE     H11A     HAL2     0.900000E-01   1.00800           0
     16485 MEMB     31       SAPE     H11B     HAL2     0.900000E-01   1.00800           0
     16486 MEMB     31       SAPE     P        PL       1.500000       30.9740           0
     16487 MEMB     31       SAPE     O13      O2L     -0.780000       15.9994           0
     16488 MEMB     31       SAPE     O14      O2L     -0.780000       15.9994           0
     16489 MEMB     31       SAPE     O12      OSLP    -0.570000       15.9994           0
     16490 MEMB     31       SAPE     O11      OSLP    -0.570000       15.9994           0
     16491 MEMB     31       SAPE     C1       CTL2    -0.800000E-01   12.0110           0
     16492 MEMB     31       SAPE     HA       HAL2     0.900000E-01   1.00800           0
     16493 MEMB     31       SAPE     HB       HAL2     0.900000E-01   1.00800           0
     16494 MEMB     31       SAPE     C2       CTL1     0.170000       12.0110           0
     16495 MEMB     31       SAPE     HS       HAL1     0.900000E-01   1.00800           0
     16496 MEMB     31       SAPE     O21      OSL     -0.490000       15.9994           0
     16497 MEMB     31       SAPE     C21      CL       0.900000       12.0110           0
     16498 MEMB     31       SAPE     O22      OBL     -0.630000       15.9994           0
     16499 MEMB     31       SAPE     C22      CTL2    -0.220000       12.0110           0
     16500 MEMB     31       SAPE     H2R      HAL2     0.900000E-01   1.00800           0
     16501 MEMB     31       SAPE     H2S      HAL2     0.900000E-01   1.00800           0
     16502 MEMB     31       SAPE     C3       CTL2     0.800000E-01   12.0110           0
     16503 MEMB     31       SAPE     HX       HAL2     0.900000E-01   1.00800           0
     16504 MEMB     31       SAPE     HY       HAL2     0.900000E-01   1.00800           0
     16505 MEMB     31       SAPE     O31      OSL     -0.490000       15.9994           0
     16506 MEMB     31       SAPE     C31      CL       0.900000       12.0110           0
     16507 MEMB     31       SAPE     O32      OBL     -0.630000       15.9994           0
     16508 MEMB     31       SAPE     C32      CTL2    -0.220000       12.0110           0
     16509 MEMB     31       SAPE     H2X      HAL2     0.900000E-01   1.00800           0
     16510 MEMB     31       SAPE     H2Y      HAL2     0.900000E-01   1.00800           0
     16511 MEMB     31       SAPE     C23      CTL2    -0.180000       12.0110           0
     16512 MEMB     31       SAPE     H3R      HAL2     0.900000E-01   1.00800           0
     16513 MEMB     31       SAPE     H3S      HAL2     0.900000E-01   1.00800           0
     16514 MEMB     31       SAPE     C24      CTL2    -0.180000       12.0110           0
     16515 MEMB     31       SAPE     H4R      HAL2     0.900000E-01   1.00800           0
     16516 MEMB     31       SAPE     H4S      HAL2     0.900000E-01   1.00800           0
     16517 MEMB     31       SAPE     C25      CEL1    -0.150000       12.0110           0
     16518 MEMB     31       SAPE     H5R      HEL1     0.150000       1.00800           0
     16519 MEMB     31       SAPE     C26      CEL1    -0.150000       12.0110           0
     16520 MEMB     31       SAPE     H6R      HEL1     0.150000       1.00800           0
     16521 MEMB     31       SAPE     C27      CTL2    -0.180000       12.0110           0
     16522 MEMB     31       SAPE     H7R      HAL2     0.900000E-01   1.00800           0
     16523 MEMB     31       SAPE     H7S      HAL2     0.900000E-01   1.00800           0
     16524 MEMB     31       SAPE     C28      CEL1    -0.150000       12.0110           0
     16525 MEMB     31       SAPE     H8R      HEL1     0.150000       1.00800           0
     16526 MEMB     31       SAPE     C29      CEL1    -0.150000       12.0110           0
     16527 MEMB     31       SAPE     H9R      HEL1     0.150000       1.00800           0
     16528 MEMB     31       SAPE     C210     CTL2    -0.180000       12.0110           0
     16529 MEMB     31       SAPE     H10R     HAL2     0.900000E-01   1.00800           0
     16530 MEMB     31       SAPE     H10S     HAL2     0.900000E-01   1.00800           0
     16531 MEMB     31       SAPE     C211     CEL1    -0.150000       12.0110           0
     16532 MEMB     31       SAPE     H11R     HEL1     0.150000       1.00800           0
     16533 MEMB     31       SAPE     C212     CEL1    -0.150000       12.0110           0
     16534 MEMB     31       SAPE     H12R     HEL1     0.150000       1.00800           0
     16535 MEMB     31       SAPE     C213     CTL2    -0.180000       12.0110           0
     16536 MEMB     31       SAPE     H13R     HAL2     0.900000E-01   1.00800           0
     16537 MEMB     31       SAPE     H13S     HAL2     0.900000E-01   1.00800           0
     16538 MEMB     31       SAPE     C214     CEL1    -0.150000       12.0110           0
     16539 MEMB     31       SAPE     H14R     HEL1     0.150000       1.00800           0
     16540 MEMB     31       SAPE     C215     CEL1    -0.150000       12.0110           0
     16541 MEMB     31       SAPE     H15R     HEL1     0.150000       1.00800           0
     16542 MEMB     31       SAPE     C216     CTL2    -0.180000       12.0110           0
     16543 MEMB     31       SAPE     H16R     HAL2     0.900000E-01   1.00800           0
     16544 MEMB     31       SAPE     H16S     HAL2     0.900000E-01   1.00800           0
     16545 MEMB     31       SAPE     C217     CTL2    -0.180000       12.0110           0
     16546 MEMB     31       SAPE     H17R     HAL2     0.900000E-01   1.00800           0
     16547 MEMB     31       SAPE     H17S     HAL2     0.900000E-01   1.00800           0
     16548 MEMB     31       SAPE     C218     CTL2    -0.180000       12.0110           0
     16549 MEMB     31       SAPE     H18R     HAL2     0.900000E-01   1.00800           0
     16550 MEMB     31       SAPE     H18S     HAL2     0.900000E-01   1.00800           0
     16551 MEMB     31       SAPE     C219     CTL2    -0.180000       12.0110           0
     16552 MEMB     31       SAPE     H19R     HAL2     0.900000E-01   1.00800           0
     16553 MEMB     31       SAPE     H19S     HAL2     0.900000E-01   1.00800           0
     16554 MEMB     31       SAPE     C220     CTL3    -0.270000       12.0110           0
     16555 MEMB     31       SAPE     H20R     HAL3     0.900000E-01   1.00800           0
     16556 MEMB     31       SAPE     H20S     HAL3     0.900000E-01   1.00800           0
     16557 MEMB     31       SAPE     H20T     HAL3     0.900000E-01   1.00800           0
     16558 MEMB     31       SAPE     C33      CTL2    -0.180000       12.0110           0
     16559 MEMB     31       SAPE     H3X      HAL2     0.900000E-01   1.00800           0
     16560 MEMB     31       SAPE     H3Y      HAL2     0.900000E-01   1.00800           0
     16561 MEMB     31       SAPE     C34      CTL2    -0.180000       12.0110           0
     16562 MEMB     31       SAPE     H4X      HAL2     0.900000E-01   1.00800           0
     16563 MEMB     31       SAPE     H4Y      HAL2     0.900000E-01   1.00800           0
     16564 MEMB     31       SAPE     C35      CTL2    -0.180000       12.0110           0
     16565 MEMB     31       SAPE     H5X      HAL2     0.900000E-01   1.00800           0
     16566 MEMB     31       SAPE     H5Y      HAL2     0.900000E-01   1.00800           0
     16567 MEMB     31       SAPE     C36      CTL2    -0.180000       12.0110           0
     16568 MEMB     31       SAPE     H6X      HAL2     0.900000E-01   1.00800           0
     16569 MEMB     31       SAPE     H6Y      HAL2     0.900000E-01   1.00800           0
     16570 MEMB     31       SAPE     C37      CTL2    -0.180000       12.0110           0
     16571 MEMB     31       SAPE     H7X      HAL2     0.900000E-01   1.00800           0
     16572 MEMB     31       SAPE     H7Y      HAL2     0.900000E-01   1.00800           0
     16573 MEMB     31       SAPE     C38      CTL2    -0.180000       12.0110           0
     16574 MEMB     31       SAPE     H8X      HAL2     0.900000E-01   1.00800           0
     16575 MEMB     31       SAPE     H8Y      HAL2     0.900000E-01   1.00800           0
     16576 MEMB     31       SAPE     C39      CTL2    -0.180000       12.0110           0
     16577 MEMB     31       SAPE     H9X      HAL2     0.900000E-01   1.00800           0
     16578 MEMB     31       SAPE     H9Y      HAL2     0.900000E-01   1.00800           0
     16579 MEMB     31       SAPE     C310     CTL2    -0.180000       12.0110           0
     16580 MEMB     31       SAPE     H10X     HAL2     0.900000E-01   1.00800           0
     16581 MEMB     31       SAPE     H10Y     HAL2     0.900000E-01   1.00800           0
     16582 MEMB     31       SAPE     C311     CTL2    -0.180000       12.0110           0
     16583 MEMB     31       SAPE     H11X     HAL2     0.900000E-01   1.00800           0
     16584 MEMB     31       SAPE     H11Y     HAL2     0.900000E-01   1.00800           0
     16585 MEMB     31       SAPE     C312     CTL2    -0.180000       12.0110           0
     16586 MEMB     31       SAPE     H12X     HAL2     0.900000E-01   1.00800           0
     16587 MEMB     31       SAPE     H12Y     HAL2     0.900000E-01   1.00800           0
     16588 MEMB     31       SAPE     C313     CTL2    -0.180000       12.0110           0
     16589 MEMB     31       SAPE     H13X     HAL2     0.900000E-01   1.00800           0
     16590 MEMB     31       SAPE     H13Y     HAL2     0.900000E-01   1.00800           0
     16591 MEMB     31       SAPE     C314     CTL2    -0.180000       12.0110           0
     16592 MEMB     31       SAPE     H14X     HAL2     0.900000E-01   1.00800           0
     16593 MEMB     31       SAPE     H14Y     HAL2     0.900000E-01   1.00800           0
     16594 MEMB     31       SAPE     C315     CTL2    -0.180000       12.0110           0
     16595 MEMB     31       SAPE     H15X     HAL2     0.900000E-01   1.00800           0
     16596 MEMB     31       SAPE     H15Y     HAL2     0.900000E-01   1.00800           0
     16597 MEMB     31       SAPE     C316     CTL2    -0.180000       12.0110           0
     16598 MEMB     31       SAPE     H16X     HAL2     0.900000E-01   1.00800           0
     16599 MEMB     31       SAPE     H16Y     HAL2     0.900000E-01   1.00800           0
     16600 MEMB     31       SAPE     C317     CTL2    -0.180000       12.0110           0
     16601 MEMB     31       SAPE     H17X     HAL2     0.900000E-01   1.00800           0
     16602 MEMB     31       SAPE     H17Y     HAL2     0.900000E-01   1.00800           0
     16603 MEMB     31       SAPE     C318     CTL3    -0.270000       12.0110           0
     16604 MEMB     31       SAPE     H18X     HAL3     0.900000E-01   1.00800           0
     16605 MEMB     31       SAPE     H18Y     HAL3     0.900000E-01   1.00800           0
     16606 MEMB     31       SAPE     H18Z     HAL3     0.900000E-01   1.00800           0
     16607 MEMB     34       SAPE     N        NH3L    -0.300000       14.0070           0
     16608 MEMB     34       SAPE     HN1      HCL      0.330000       1.00800           0
     16609 MEMB     34       SAPE     HN2      HCL      0.330000       1.00800           0
     16610 MEMB     34       SAPE     HN3      HCL      0.330000       1.00800           0
     16611 MEMB     34       SAPE     C12      CTL2     0.130000       12.0110           0
     16612 MEMB     34       SAPE     H12A     HAL2     0.900000E-01   1.00800           0
     16613 MEMB     34       SAPE     H12B     HAL2     0.900000E-01   1.00800           0
     16614 MEMB     34       SAPE     C11      CTL2    -0.800000E-01   12.0110           0
     16615 MEMB     34       SAPE     H11A     HAL2     0.900000E-01   1.00800           0
     16616 MEMB     34       SAPE     H11B     HAL2     0.900000E-01   1.00800           0
     16617 MEMB     34       SAPE     P        PL       1.500000       30.9740           0
     16618 MEMB     34       SAPE     O13      O2L     -0.780000       15.9994           0
     16619 MEMB     34       SAPE     O14      O2L     -0.780000       15.9994           0
     16620 MEMB     34       SAPE     O12      OSLP    -0.570000       15.9994           0
     16621 MEMB     34       SAPE     O11      OSLP    -0.570000       15.9994           0
     16622 MEMB     34       SAPE     C1       CTL2    -0.800000E-01   12.0110           0
     16623 MEMB     34       SAPE     HA       HAL2     0.900000E-01   1.00800           0
     16624 MEMB     34       SAPE     HB       HAL2     0.900000E-01   1.00800           0
     16625 MEMB     34       SAPE     C2       CTL1     0.170000       12.0110           0
     16626 MEMB     34       SAPE     HS       HAL1     0.900000E-01   1.00800           0
     16627 MEMB     34       SAPE     O21      OSL     -0.490000       15.9994           0
     16628 MEMB     34       SAPE     C21      CL       0.900000       12.0110           0
     16629 MEMB     34       SAPE     O22      OBL     -0.630000       15.9994           0
     16630 MEMB     34       SAPE     C22      CTL2    -0.220000       12.0110           0
     16631 MEMB     34       SAPE     H2R      HAL2     0.900000E-01   1.00800           0
     16632 MEMB     34       SAPE     H2S      HAL2     0.900000E-01   1.00800           0
     16633 MEMB     34       SAPE     C3       CTL2     0.800000E-01   12.0110           0
     16634 MEMB     34       SAPE     HX       HAL2     0.900000E-01   1.00800           0
     16635 MEMB     34       SAPE     HY       HAL2     0.900000E-01   1.00800           0
     16636 MEMB     34       SAPE     O31      OSL     -0.490000       15.9994           0
     16637 MEMB     34       SAPE     C31      CL       0.900000       12.0110           0
     16638 MEMB     34       SAPE     O32      OBL     -0.630000       15.9994           0
     16639 MEMB     34       SAPE     C32      CTL2    -0.220000       12.0110           0
     16640 MEMB     34       SAPE     H2X      HAL2     0.900000E-01   1.00800           0
     16641 MEMB     34       SAPE     H2Y      HAL2     0.900000E-01   1.00800           0
     16642 MEMB     34       SAPE     C23      CTL2    -0.180000       12.0110           0
     16643 MEMB     34       SAPE     H3R      HAL2     0.900000E-01   1.00800           0
     16644 MEMB     34       SAPE     H3S      HAL2     0.900000E-01   1.00800           0
     16645 MEMB     34       SAPE     C24      CTL2    -0.180000       12.0110           0
     16646 MEMB     34       SAPE     H4R      HAL2     0.900000E-01   1.00800           0
     16647 MEMB     34       SAPE     H4S      HAL2     0.900000E-01   1.00800           0
     16648 MEMB     34       SAPE     C25      CEL1    -0.150000       12.0110           0
     16649 MEMB     34       SAPE     H5R      HEL1     0.150000       1.00800           0
     16650 MEMB     34       SAPE     C26      CEL1    -0.150000       12.0110           0
     16651 MEMB     34       SAPE     H6R      HEL1     0.150000       1.00800           0
     16652 MEMB     34       SAPE     C27      CTL2    -0.180000       12.0110           0
     16653 MEMB     34       SAPE     H7R      HAL2     0.900000E-01   1.00800           0
     16654 MEMB     34       SAPE     H7S      HAL2     0.900000E-01   1.00800           0
     16655 MEMB     34       SAPE     C28      CEL1    -0.150000       12.0110           0
     16656 MEMB     34       SAPE     H8R      HEL1     0.150000       1.00800           0
     16657 MEMB     34       SAPE     C29      CEL1    -0.150000       12.0110           0
     16658 MEMB     34       SAPE     H9R      HEL1     0.150000       1.00800           0
     16659 MEMB     34       SAPE     C210     CTL2    -0.180000       12.0110           0
     16660 MEMB     34       SAPE     H10R     HAL2     0.900000E-01   1.00800           0
     16661 MEMB     34       SAPE     H10S     HAL2     0.900000E-01   1.00800           0
     16662 MEMB     34       SAPE     C211     CEL1    -0.150000       12.0110           0
     16663 MEMB     34       SAPE     H11R     HEL1     0.150000       1.00800           0
     16664 MEMB     34       SAPE     C212     CEL1    -0.150000       12.0110           0
     16665 MEMB     34       SAPE     H12R     HEL1     0.150000       1.00800           0
     16666 MEMB     34       SAPE     C213     CTL2    -0.180000       12.0110           0
     16667 MEMB     34       SAPE     H13R     HAL2     0.900000E-01   1.00800           0
     16668 MEMB     34       SAPE     H13S     HAL2     0.900000E-01   1.00800           0
     16669 MEMB     34       SAPE     C214     CEL1    -0.150000       12.0110           0
     16670 MEMB     34       SAPE     H14R     HEL1     0.150000       1.00800           0
     16671 MEMB     34       SAPE     C215     CEL1    -0.150000       12.0110           0
     16672 MEMB     34       SAPE     H15R     HEL1     0.150000       1.00800           0
     16673 MEMB     34       SAPE     C216     CTL2    -0.180000       12.0110           0
     16674 MEMB     34       SAPE     H16R     HAL2     0.900000E-01   1.00800           0
     16675 MEMB     34       SAPE     H16S     HAL2     0.900000E-01   1.00800           0
     16676 MEMB     34       SAPE     C217     CTL2    -0.180000       12.0110           0
     16677 MEMB     34       SAPE     H17R     HAL2     0.900000E-01   1.00800           0
     16678 MEMB     34       SAPE     H17S     HAL2     0.900000E-01   1.00800           0
     16679 MEMB     34       SAPE     C218     CTL2    -0.180000       12.0110           0
     16680 MEMB     34       SAPE     H18R     HAL2     0.900000E-01   1.00800           0
     16681 MEMB     34       SAPE     H18S     HAL2     0.900000E-01   1.00800           0
     16682 MEMB     34       SAPE     C219     CTL2    -0.180000       12.0110           0
     16683 MEMB     34       SAPE     H19R     HAL2     0.900000E-01   1.00800           0
     16684 MEMB     34       SAPE     H19S     HAL2     0.900000E-01   1.00800           0
     16685 MEMB     34       SAPE     C220     CTL3    -0.270000       12.0110           0
     16686 MEMB     34       SAPE     H20R     HAL3     0.900000E-01   1.00800           0
     16687 MEMB     34       SAPE     H20S     HAL3     0.900000E-01   1.00800           0
     16688 MEMB     34       SAPE     H20T     HAL3     0.900000E-01   1.00800           0
     16689 MEMB     34       SAPE     C33      CTL2    -0.180000       12.0110           0
     16690 MEMB     34       SAPE     H3X      HAL2     0.900000E-01   1.00800           0
     16691 MEMB     34       SAPE     H3Y      HAL2     0.900000E-01   1.00800           0
     16692 MEMB     34       SAPE     C34      CTL2    -0.180000       12.0110           0
     16693 MEMB     34       SAPE     H4X      HAL2     0.900000E-01   1.00800           0
     16694 MEMB     34       SAPE     H4Y      HAL2     0.900000E-01   1.00800           0
     16695 MEMB     34       SAPE     C35      CTL2    -0.180000       12.0110           0
     16696 MEMB     34       SAPE     H5X      HAL2     0.900000E-01   1.00800           0
     16697 MEMB     34       SAPE     H5Y      HAL2     0.900000E-01   1.00800           0
     16698 MEMB     34       SAPE     C36      CTL2    -0.180000       12.0110           0
     16699 MEMB     34       SAPE     H6X      HAL2     0.900000E-01   1.00800           0
     16700 MEMB     34       SAPE     H6Y      HAL2     0.900000E-01   1.00800           0
     16701 MEMB     34       SAPE     C37      CTL2    -0.180000       12.0110           0
     16702 MEMB     34       SAPE     H7X      HAL2     0.900000E-01   1.00800           0
     16703 MEMB     34       SAPE     H7Y      HAL2     0.900000E-01   1.00800           0
     16704 MEMB     34       SAPE     C38      CTL2    -0.180000       12.0110           0
     16705 MEMB     34       SAPE     H8X      HAL2     0.900000E-01   1.00800           0
     16706 MEMB     34       SAPE     H8Y      HAL2     0.900000E-01   1.00800           0
     16707 MEMB     34       SAPE     C39      CTL2    -0.180000       12.0110           0
     16708 MEMB     34       SAPE     H9X      HAL2     0.900000E-01   1.00800           0
     16709 MEMB     34       SAPE     H9Y      HAL2     0.900000E-01   1.00800           0
     16710 MEMB     34       SAPE     C310     CTL2    -0.180000       12.0110           0
     16711 MEMB     34       SAPE     H10X     HAL2     0.900000E-01   1.00800           0
     16712 MEMB     34       SAPE     H10Y     HAL2     0.900000E-01   1.00800           0
     16713 MEMB     34       SAPE     C311     CTL2    -0.180000       12.0110           0
     16714 MEMB     34       SAPE     H11X     HAL2     0.900000E-01   1.00800           0
     16715 MEMB     34       SAPE     H11Y     HAL2     0.900000E-01   1.00800           0
     16716 MEMB     34       SAPE     C312     CTL2    -0.180000       12.0110           0
     16717 MEMB     34       SAPE     H12X     HAL2     0.900000E-01   1.00800           0
     16718 MEMB     34       SAPE     H12Y     HAL2     0.900000E-01   1.00800           0
     16719 MEMB     34       SAPE     C313     CTL2    -0.180000       12.0110           0
     16720 MEMB     34       SAPE     H13X     HAL2     0.900000E-01   1.00800           0
     16721 MEMB     34       SAPE     H13Y     HAL2     0.900000E-01   1.00800           0
     16722 MEMB     34       SAPE     C314     CTL2    -0.180000       12.0110           0
     16723 MEMB     34       SAPE     H14X     HAL2     0.900000E-01   1.00800           0
     16724 MEMB     34       SAPE     H14Y     HAL2     0.900000E-01   1.00800           0
     16725 MEMB     34       SAPE     C315     CTL2    -0.180000       12.0110           0
     16726 MEMB     34       SAPE     H15X     HAL2     0.900000E-01   1.00800           0
     16727 MEMB     34       SAPE     H15Y     HAL2     0.900000E-01   1.00800           0
     16728 MEMB     34       SAPE     C316     CTL2    -0.180000       12.0110           0
     16729 MEMB     34       SAPE     H16X     HAL2     0.900000E-01   1.00800           0
     16730 MEMB     34       SAPE     H16Y     HAL2     0.900000E-01   1.00800           0
     16731 MEMB     34       SAPE     C317     CTL2    -0.180000       12.0110           0
     16732 MEMB     34       SAPE     H17X     HAL2     0.900000E-01   1.00800           0
     16733 MEMB     34       SAPE     H17Y     HAL2     0.900000E-01   1.00800           0
     16734 MEMB     34       SAPE     C318     CTL3    -0.270000       12.0110           0
     16735 MEMB     34       SAPE     H18X     HAL3     0.900000E-01   1.00800           0
     16736 MEMB     34       SAPE     H18Y     HAL3     0.900000E-01   1.00800           0
     16737 MEMB     34       SAPE     H18Z     HAL3     0.900000E-01   1.00800           0
     16738 MEMB     38       SAPE     N        NH3L    -0.300000       14.0070           0
     16739 MEMB     38       SAPE     HN1      HCL      0.330000       1.00800           0
     16740 MEMB     38       SAPE     HN2      HCL      0.330000       1.00800           0
     16741 MEMB     38       SAPE     HN3      HCL      0.330000       1.00800           0
     16742 MEMB     38       SAPE     C12      CTL2     0.130000       12.0110           0
     16743 MEMB     38       SAPE     H12A     HAL2     0.900000E-01   1.00800           0
     16744 MEMB     38       SAPE     H12B     HAL2     0.900000E-01   1.00800           0
     16745 MEMB     38       SAPE     C11      CTL2    -0.800000E-01   12.0110           0
     16746 MEMB     38       SAPE     H11A     HAL2     0.900000E-01   1.00800           0
     16747 MEMB     38       SAPE     H11B     HAL2     0.900000E-01   1.00800           0
     16748 MEMB     38       SAPE     P        PL       1.500000       30.9740           0
     16749 MEMB     38       SAPE     O13      O2L     -0.780000       15.9994           0
     16750 MEMB     38       SAPE     O14      O2L     -0.780000       15.9994           0
     16751 MEMB     38       SAPE     O12      OSLP    -0.570000       15.9994           0
     16752 MEMB     38       SAPE     O11      OSLP    -0.570000       15.9994           0
     16753 MEMB     38       SAPE     C1       CTL2    -0.800000E-01   12.0110           0
     16754 MEMB     38       SAPE     HA       HAL2     0.900000E-01   1.00800           0
     16755 MEMB     38       SAPE     HB       HAL2     0.900000E-01   1.00800           0
     16756 MEMB     38       SAPE     C2       CTL1     0.170000       12.0110           0
     16757 MEMB     38       SAPE     HS       HAL1     0.900000E-01   1.00800           0
     16758 MEMB     38       SAPE     O21      OSL     -0.490000       15.9994           0
     16759 MEMB     38       SAPE     C21      CL       0.900000       12.0110           0
     16760 MEMB     38       SAPE     O22      OBL     -0.630000       15.9994           0
     16761 MEMB     38       SAPE     C22      CTL2    -0.220000       12.0110           0
     16762 MEMB     38       SAPE     H2R      HAL2     0.900000E-01   1.00800           0
     16763 MEMB     38       SAPE     H2S      HAL2     0.900000E-01   1.00800           0
     16764 MEMB     38       SAPE     C3       CTL2     0.800000E-01   12.0110           0
     16765 MEMB     38       SAPE     HX       HAL2     0.900000E-01   1.00800           0
     16766 MEMB     38       SAPE     HY       HAL2     0.900000E-01   1.00800           0
     16767 MEMB     38       SAPE     O31      OSL     -0.490000       15.9994           0
     16768 MEMB     38       SAPE     C31      CL       0.900000       12.0110           0
     16769 MEMB     38       SAPE     O32      OBL     -0.630000       15.9994           0
     16770 MEMB     38       SAPE     C32      CTL2    -0.220000       12.0110           0
     16771 MEMB     38       SAPE     H2X      HAL2     0.900000E-01   1.00800           0
     16772 MEMB     38       SAPE     H2Y      HAL2     0.900000E-01   1.00800           0
     16773 MEMB     38       SAPE     C23      CTL2    -0.180000       12.0110           0
     16774 MEMB     38       SAPE     H3R      HAL2     0.900000E-01   1.00800           0
     16775 MEMB     38       SAPE     H3S      HAL2     0.900000E-01   1.00800           0
     16776 MEMB     38       SAPE     C24      CTL2    -0.180000       12.0110           0
     16777 MEMB     38       SAPE     H4R      HAL2     0.900000E-01   1.00800           0
     16778 MEMB     38       SAPE     H4S      HAL2     0.900000E-01   1.00800           0
     16779 MEMB     38       SAPE     C25      CEL1    -0.150000       12.0110           0
     16780 MEMB     38       SAPE     H5R      HEL1     0.150000       1.00800           0
     16781 MEMB     38       SAPE     C26      CEL1    -0.150000       12.0110           0
     16782 MEMB     38       SAPE     H6R      HEL1     0.150000       1.00800           0
     16783 MEMB     38       SAPE     C27      CTL2    -0.180000       12.0110           0
     16784 MEMB     38       SAPE     H7R      HAL2     0.900000E-01   1.00800           0
     16785 MEMB     38       SAPE     H7S      HAL2     0.900000E-01   1.00800           0
     16786 MEMB     38       SAPE     C28      CEL1    -0.150000       12.0110           0
     16787 MEMB     38       SAPE     H8R      HEL1     0.150000       1.00800           0
     16788 MEMB     38       SAPE     C29      CEL1    -0.150000       12.0110           0
     16789 MEMB     38       SAPE     H9R      HEL1     0.150000       1.00800           0
     16790 MEMB     38       SAPE     C210     CTL2    -0.180000       12.0110           0
     16791 MEMB     38       SAPE     H10R     HAL2     0.900000E-01   1.00800           0
     16792 MEMB     38       SAPE     H10S     HAL2     0.900000E-01   1.00800           0
     16793 MEMB     38       SAPE     C211     CEL1    -0.150000       12.0110           0
     16794 MEMB     38       SAPE     H11R     HEL1     0.150000       1.00800           0
     16795 MEMB     38       SAPE     C212     CEL1    -0.150000       12.0110           0
     16796 MEMB     38       SAPE     H12R     HEL1     0.150000       1.00800           0
     16797 MEMB     38       SAPE     C213     CTL2    -0.180000       12.0110           0
     16798 MEMB     38       SAPE     H13R     HAL2     0.900000E-01   1.00800           0
     16799 MEMB     38       SAPE     H13S     HAL2     0.900000E-01   1.00800           0
     16800 MEMB     38       SAPE     C214     CEL1    -0.150000       12.0110           0
     16801 MEMB     38       SAPE     H14R     HEL1     0.150000       1.00800           0
     16802 MEMB     38       SAPE     C215     CEL1    -0.150000       12.0110           0
     16803 MEMB     38       SAPE     H15R     HEL1     0.150000       1.00800           0
     16804 MEMB     38       SAPE     C216     CTL2    -0.180000       12.0110           0
     16805 MEMB     38       SAPE     H16R     HAL2     0.900000E-01   1.00800           0
     16806 MEMB     38       SAPE     H16S     HAL2     0.900000E-01   1.00800           0
     16807 MEMB     38       SAPE     C217     CTL2    -0.180000       12.0110           0
     16808 MEMB     38       SAPE     H17R     HAL2     0.900000E-01   1.00800           0
     16809 MEMB     38       SAPE     H17S     HAL2     0.900000E-01   1.00800           0
     16810 MEMB     38       SAPE     C218     CTL2    -0.180000       12.0110           0
     16811 MEMB     38       SAPE     H18R     HAL2     0.900000E-01   1.00800           0
     16812 MEMB     38       SAPE     H18S     HAL2     0.900000E-01   1.00800           0
     16813 MEMB     38       SAPE     C219     CTL2    -0.180000       12.0110           0
     16814 MEMB     38       SAPE     H19R     HAL2     0.900000E-01   1.00800           0
     16815 MEMB     38       SAPE     H19S     HAL2     0.900000E-01   1.00800           0
     16816 MEMB     38       SAPE     C220     CTL3    -0.270000       12.0110           0
     16817 MEMB     38       SAPE     H20R     HAL3     0.900000E-01   1.00800           0
     16818 MEMB     38       SAPE     H20S     HAL3     0.900000E-01   1.00800           0
     16819 MEMB     38       SAPE     H20T     HAL3     0.900000E-01   1.00800           0
     16820 MEMB     38       SAPE     C33      CTL2    -0.180000       12.0110           0
     16821 MEMB     38       SAPE     H3X      HAL2     0.900000E-01   1.00800           0
     16822 MEMB     38       SAPE     H3Y      HAL2     0.900000E-01   1.00800           0
     16823 MEMB     38       SAPE     C34      CTL2    -0.180000       12.0110           0
     16824 MEMB     38       SAPE     H4X      HAL2     0.900000E-01   1.00800           0
     16825 MEMB     38       SAPE     H4Y      HAL2     0.900000E-01   1.00800           0
     16826 MEMB     38       SAPE     C35      CTL2    -0.180000       12.0110           0
     16827 MEMB     38       SAPE     H5X      HAL2     0.900000E-01   1.00800           0
     16828 MEMB     38       SAPE     H5Y      HAL2     0.900000E-01   1.00800           0
     16829 MEMB     38       SAPE     C36      CTL2    -0.180000       12.0110           0
     16830 MEMB     38       SAPE     H6X      HAL2     0.900000E-01   1.00800           0
     16831 MEMB     38       SAPE     H6Y      HAL2     0.900000E-01   1.00800           0
     16832 MEMB     38       SAPE     C37      CTL2    -0.180000       12.0110           0
     16833 MEMB     38       SAPE     H7X      HAL2     0.900000E-01   1.00800           0
     16834 MEMB     38       SAPE     H7Y      HAL2     0.900000E-01   1.00800           0
     16835 MEMB     38       SAPE     C38      CTL2    -0.180000       12.0110           0
     16836 MEMB     38       SAPE     H8X      HAL2     0.900000E-01   1.00800           0
     16837 MEMB     38       SAPE     H8Y      HAL2     0.900000E-01   1.00800           0
     16838 MEMB     38       SAPE     C39      CTL2    -0.180000       12.0110           0
     16839 MEMB     38       SAPE     H9X      HAL2     0.900000E-01   1.00800           0
     16840 MEMB     38       SAPE     H9Y      HAL2     0.900000E-01   1.00800           0
     16841 MEMB     38       SAPE     C310     CTL2    -0.180000       12.0110           0
     16842 MEMB     38       SAPE     H10X     HAL2     0.900000E-01   1.00800           0
     16843 MEMB     38       SAPE     H10Y     HAL2     0.900000E-01   1.00800           0
     16844 MEMB     38       SAPE     C311     CTL2    -0.180000       12.0110           0
     16845 MEMB     38       SAPE     H11X     HAL2     0.900000E-01   1.00800           0
     16846 MEMB     38       SAPE     H11Y     HAL2     0.900000E-01   1.00800           0
     16847 MEMB     38       SAPE     C312     CTL2    -0.180000       12.0110           0
     16848 MEMB     38       SAPE     H12X     HAL2     0.900000E-01   1.00800           0
     16849 MEMB     38       SAPE     H12Y     HAL2     0.900000E-01   1.00800           0
     16850 MEMB     38       SAPE     C313     CTL2    -0.180000       12.0110           0
     16851 MEMB     38       SAPE     H13X     HAL2     0.900000E-01   1.00800           0
     16852 MEMB     38       SAPE     H13Y     HAL2     0.900000E-01   1.00800           0
     16853 MEMB     38       SAPE     C314     CTL2    -0.180000       12.0110           0
     16854 MEMB     38       SAPE     H14X     HAL2     0.900000E-01   1.00800           0
     16855 MEMB     38       SAPE     H14Y     HAL2     0.900000E-01   1.00800           0
     16856 MEMB     38       SAPE     C315     CTL2    -0.180000       12.0110           0
     16857 MEMB     38       SAPE     H15X     HAL2     0.900000E-01   1.00800           0
     16858 MEMB     38       SAPE     H15Y     HAL2     0.900000E-01   1.00800           0
     16859 MEMB     38       SAPE     C316     CTL2    -0.180000       12.0110           0
     16860 MEMB     38       SAPE     H16X     HAL2     0.900000E-01   1.00800           0
     16861 MEMB     38       SAPE     H16Y     HAL2     0.900000E-01   1.00800           0
     16862 MEMB     38       SAPE     C317     CTL2    -0.180000       12.0110           0
     16863 MEMB     38       SAPE     H17X     HAL2     0.900000E-01   1.00800           0
     16864 MEMB     38       SAPE     H17Y     HAL2     0.900000E-01   1.00800           0
     16865 MEMB     38       SAPE     C318     CTL3    -0.270000       12.0110           0
     16866 MEMB     38       SAPE     H18X     HAL3     0.900000E-01   1.00800           0
     16867 MEMB     38       SAPE     H18Y     HAL3     0.900000E-01   1.00800           0
     16868 MEMB     38       SAPE     H18Z     HAL3     0.900000E-01   1.00800           0
     16869 MEMB     51       SAPE     N        NH3L    -0.300000       14.0070           0
     16870 MEMB     51       SAPE     HN1      HCL      0.330000       1.00800           0
     16871 MEMB     51       SAPE     HN2      HCL      0.330000       1.00800           0
     16872 MEMB     51       SAPE     HN3      HCL      0.330000       1.00800           0
     16873 MEMB     51       SAPE     C12      CTL2     0.130000       12.0110           0
     16874 MEMB     51       SAPE     H12A     HAL2     0.900000E-01   1.00800           0
     16875 MEMB     51       SAPE     H12B     HAL2     0.900000E-01   1.00800           0
     16876 MEMB     51       SAPE     C11      CTL2    -0.800000E-01   12.0110           0
     16877 MEMB     51       SAPE     H11A     HAL2     0.900000E-01   1.00800           0
     16878 MEMB     51       SAPE     H11B     HAL2     0.900000E-01   1.00800           0
     16879 MEMB     51       SAPE     P        PL       1.500000       30.9740           0
     16880 MEMB     51       SAPE     O13      O2L     -0.780000       15.9994           0
     16881 MEMB     51       SAPE     O14      O2L     -0.780000       15.9994           0
     16882 MEMB     51       SAPE     O12      OSLP    -0.570000       15.9994           0
     16883 MEMB     51       SAPE     O11      OSLP    -0.570000       15.9994           0
     16884 MEMB     51       SAPE     C1       CTL2    -0.800000E-01   12.0110           0
     16885 MEMB     51       SAPE     HA       HAL2     0.900000E-01   1.00800           0
     16886 MEMB     51       SAPE     HB       HAL2     0.900000E-01   1.00800           0
     16887 MEMB     51       SAPE     C2       CTL1     0.170000       12.0110           0
     16888 MEMB     51       SAPE     HS       HAL1     0.900000E-01   1.00800           0
     16889 MEMB     51       SAPE     O21      OSL     -0.490000       15.9994           0
     16890 MEMB     51       SAPE     C21      CL       0.900000       12.0110           0
     16891 MEMB     51       SAPE     O22      OBL     -0.630000       15.9994           0
     16892 MEMB     51       SAPE     C22      CTL2    -0.220000       12.0110           0
     16893 MEMB     51       SAPE     H2R      HAL2     0.900000E-01   1.00800           0
     16894 MEMB     51       SAPE     H2S      HAL2     0.900000E-01   1.00800           0
     16895 MEMB     51       SAPE     C3       CTL2     0.800000E-01   12.0110           0
     16896 MEMB     51       SAPE     HX       HAL2     0.900000E-01   1.00800           0
     16897 MEMB     51       SAPE     HY       HAL2     0.900000E-01   1.00800           0
     16898 MEMB     51       SAPE     O31      OSL     -0.490000       15.9994           0
     16899 MEMB     51       SAPE     C31      CL       0.900000       12.0110           0
     16900 MEMB     51       SAPE     O32      OBL     -0.630000       15.9994           0
     16901 MEMB     51       SAPE     C32      CTL2    -0.220000       12.0110           0
     16902 MEMB     51       SAPE     H2X      HAL2     0.900000E-01   1.00800           0
     16903 MEMB     51       SAPE     H2Y      HAL2     0.900000E-01   1.00800           0
     16904 MEMB     51       SAPE     C23      CTL2    -0.180000       12.0110           0
     16905 MEMB     51       SAPE     H3R      HAL2     0.900000E-01   1.00800           0
     16906 MEMB     51       SAPE     H3S      HAL2     0.900000E-01   1.00800           0
     16907 MEMB     51       SAPE     C24      CTL2    -0.180000       12.0110           0
     16908 MEMB     51       SAPE     H4R      HAL2     0.900000E-01   1.00800           0
     16909 MEMB     51       SAPE     H4S      HAL2     0.900000E-01   1.00800           0
     16910 MEMB     51       SAPE     C25      CEL1    -0.150000       12.0110           0
     16911 MEMB     51       SAPE     H5R      HEL1     0.150000       1.00800           0
     16912 MEMB     51       SAPE     C26      CEL1    -0.150000       12.0110           0
     16913 MEMB     51       SAPE     H6R      HEL1     0.150000       1.00800           0
     16914 MEMB     51       SAPE     C27      CTL2    -0.180000       12.0110           0
     16915 MEMB     51       SAPE     H7R      HAL2     0.900000E-01   1.00800           0
     16916 MEMB     51       SAPE     H7S      HAL2     0.900000E-01   1.00800           0
     16917 MEMB     51       SAPE     C28      CEL1    -0.150000       12.0110           0
     16918 MEMB     51       SAPE     H8R      HEL1     0.150000       1.00800           0
     16919 MEMB     51       SAPE     C29      CEL1    -0.150000       12.0110           0
     16920 MEMB     51       SAPE     H9R      HEL1     0.150000       1.00800           0
     16921 MEMB     51       SAPE     C210     CTL2    -0.180000       12.0110           0
     16922 MEMB     51       SAPE     H10R     HAL2     0.900000E-01   1.00800           0
     16923 MEMB     51       SAPE     H10S     HAL2     0.900000E-01   1.00800           0
     16924 MEMB     51       SAPE     C211     CEL1    -0.150000       12.0110           0
     16925 MEMB     51       SAPE     H11R     HEL1     0.150000       1.00800           0
     16926 MEMB     51       SAPE     C212     CEL1    -0.150000       12.0110           0
     16927 MEMB     51       SAPE     H12R     HEL1     0.150000       1.00800           0
     16928 MEMB     51       SAPE     C213     CTL2    -0.180000       12.0110           0
     16929 MEMB     51       SAPE     H13R     HAL2     0.900000E-01   1.00800           0
     16930 MEMB     51       SAPE     H13S     HAL2     0.900000E-01   1.00800           0
     16931 MEMB     51       SAPE     C214     CEL1    -0.150000       12.0110           0
     16932 MEMB     51       SAPE     H14R     HEL1     0.150000       1.00800           0
     16933 MEMB     51       SAPE     C215     CEL1    -0.150000       12.0110           0
     16934 MEMB     51       SAPE     H15R     HEL1     0.150000       1.00800           0
     16935 MEMB     51       SAPE     C216     CTL2    -0.180000       12.0110           0
     16936 MEMB     51       SAPE     H16R     HAL2     0.900000E-01   1.00800           0
     16937 MEMB     51       SAPE     H16S     HAL2     0.900000E-01   1.00800           0
     16938 MEMB     51       SAPE     C217     CTL2    -0.180000       12.0110           0
     16939 MEMB     51       SAPE     H17R     HAL2     0.900000E-01   1.00800           0
     16940 MEMB     51       SAPE     H17S     HAL2     0.900000E-01   1.00800           0
     16941 MEMB     51       SAPE     C218     CTL2    -0.180000       12.0110           0
     16942 MEMB     51       SAPE     H18R     HAL2     0.900000E-01   1.00800           0
     16943 MEMB     51       SAPE     H18S     HAL2     0.900000E-01   1.00800           0
     16944 MEMB     51       SAPE     C219     CTL2    -0.180000       12.0110           0
     16945 MEMB     51       SAPE     H19R     HAL2     0.900000E-01   1.00800           0
     16946 MEMB     51       SAPE     H19S     HAL2     0.900000E-01   1.00800           0
     16947 MEMB     51       SAPE     C220     CTL3    -0.270000       12.0110           0
     16948 MEMB     51       SAPE     H20R     HAL3     0.900000E-01   1.00800           0
     16949 MEMB     51       SAPE     H20S     HAL3     0.900000E-01   1.00800           0
     16950 MEMB     51       SAPE     H20T     HAL3     0.900000E-01   1.00800           0
     16951 MEMB     51       SAPE     C33      CTL2    -0.180000       12.0110           0
     16952 MEMB     51       SAPE     H3X      HAL2     0.900000E-01   1.00800           0
     16953 MEMB     51       SAPE     H3Y      HAL2     0.900000E-01   1.00800           0
     16954 MEMB     51       SAPE     C34      CTL2    -0.180000       12.0110           0
     16955 MEMB     51       SAPE     H4X      HAL2     0.900000E-01   1.00800           0
     16956 MEMB     51       SAPE     H4Y      HAL2     0.900000E-01   1.00800           0
     16957 MEMB     51       SAPE     C35      CTL2    -0.180000       12.0110           0
     16958 MEMB     51       SAPE     H5X      HAL2     0.900000E-01   1.00800           0
     16959 MEMB     51       SAPE     H5Y      HAL2     0.900000E-01   1.00800           0
     16960 MEMB     51       SAPE     C36      CTL2    -0.180000       12.0110           0
     16961 MEMB     51       SAPE     H6X      HAL2     0.900000E-01   1.00800           0
     16962 MEMB     51       SAPE     H6Y      HAL2     0.900000E-01   1.00800           0
     16963 MEMB     51       SAPE     C37      CTL2    -0.180000       12.0110           0
     16964 MEMB     51       SAPE     H7X      HAL2     0.900000E-01   1.00800           0
     16965 MEMB     51       SAPE     H7Y      HAL2     0.900000E-01   1.00800           0
     16966 MEMB     51       SAPE     C38      CTL2    -0.180000       12.0110           0
     16967 MEMB     51       SAPE     H8X      HAL2     0.900000E-01   1.00800           0
     16968 MEMB     51       SAPE     H8Y      HAL2     0.900000E-01   1.00800           0
     16969 MEMB     51       SAPE     C39      CTL2    -0.180000       12.0110           0
     16970 MEMB     51       SAPE     H9X      HAL2     0.900000E-01   1.00800           0
     16971 MEMB     51       SAPE     H9Y      HAL2     0.900000E-01   1.00800           0
     16972 MEMB     51       SAPE     C310     CTL2    -0.180000       12.0110           0
     16973 MEMB     51       SAPE     H10X     HAL2     0.900000E-01   1.00800           0
     16974 MEMB     51       SAPE     H10Y     HAL2     0.900000E-01   1.00800           0
     16975 MEMB     51       SAPE     C311     CTL2    -0.180000       12.0110           0
     16976 MEMB     51       SAPE     H11X     HAL2     0.900000E-01   1.00800           0
     16977 MEMB     51       SAPE     H11Y     HAL2     0.900000E-01   1.00800           0
     16978 MEMB     51       SAPE     C312     CTL2    -0.180000       12.0110           0
     16979 MEMB     51       SAPE     H12X     HAL2     0.900000E-01   1.00800           0
     16980 MEMB     51       SAPE     H12Y     HAL2     0.900000E-01   1.00800           0
     16981 MEMB     51       SAPE     C313     CTL2    -0.180000       12.0110           0
     16982 MEMB     51       SAPE     H13X     HAL2     0.900000E-01   1.00800           0
     16983 MEMB     51       SAPE     H13Y     HAL2     0.900000E-01   1.00800           0
     16984 MEMB     51       SAPE     C314     CTL2    -0.180000       12.0110           0
     16985 MEMB     51       SAPE     H14X     HAL2     0.900000E-01   1.00800           0
     16986 MEMB     51       SAPE     H14Y     HAL2     0.900000E-01   1.00800           0
     16987 MEMB     51       SAPE     C315     CTL2    -0.180000       12.0110           0
     16988 MEMB     51       SAPE     H15X     HAL2     0.900000E-01   1.00800           0
     16989 MEMB     51       SAPE     H15Y     HAL2     0.900000E-01   1.00800           0
     16990 MEMB     51       SAPE     C316     CTL2    -0.180000       12.0110           0
     16991 MEMB     51       SAPE     H16X     HAL2     0.900000E-01   1.00800           0
     16992 MEMB     51       SAPE     H16Y     HAL2     0.900000E-01   1.00800           0
     16993 MEMB     51       SAPE     C317     CTL2    -0.180000       12.0110           0
     16994 MEMB     51       SAPE     H17X     HAL2     0.900000E-01   1.00800           0
     16995 MEMB     51       SAPE     H17Y     HAL2     0.900000E-01   1.00800           0
     16996 MEMB     51       SAPE     C318     CTL3    -0.270000       12.0110           0
     16997 MEMB     51       SAPE     H18X     HAL3     0.900000E-01   1.00800           0
     16998 MEMB     51       SAPE     H18Y     HAL3     0.900000E-01   1.00800           0
     16999 MEMB     51       SAPE     H18Z     HAL3     0.900000E-01   1.00800           0
     17000 MEMB     67       SAPE     N        NH3L    -0.300000       14.0070           0
     17001 MEMB     67       SAPE     HN1      HCL      0.330000       1.00800           0
     17002 MEMB     67       SAPE     HN2      HCL      0.330000       1.00800           0
     17003 MEMB     67       SAPE     HN3      HCL      0.330000       1.00800           0
     17004 MEMB     67       SAPE     C12      CTL2     0.130000       12.0110           0
     17005 MEMB     67       SAPE     H12A     HAL2     0.900000E-01   1.00800           0
     17006 MEMB     67       SAPE     H12B     HAL2     0.900000E-01   1.00800           0
     17007 MEMB     67       SAPE     C11      CTL2    -0.800000E-01   12.0110           0
     17008 MEMB     67       SAPE     H11A     HAL2     0.900000E-01   1.00800           0
     17009 MEMB     67       SAPE     H11B     HAL2     0.900000E-01   1.00800           0
     17010 MEMB     67       SAPE     P        PL       1.500000       30.9740           0
     17011 MEMB     67       SAPE     O13      O2L     -0.780000       15.9994           0
     17012 MEMB     67       SAPE     O14      O2L     -0.780000       15.9994           0
     17013 MEMB     67       SAPE     O12      OSLP    -0.570000       15.9994           0
     17014 MEMB     67       SAPE     O11      OSLP    -0.570000       15.9994           0
     17015 MEMB     67       SAPE     C1       CTL2    -0.800000E-01   12.0110           0
     17016 MEMB     67       SAPE     HA       HAL2     0.900000E-01   1.00800           0
     17017 MEMB     67       SAPE     HB       HAL2     0.900000E-01   1.00800           0
     17018 MEMB     67       SAPE     C2       CTL1     0.170000       12.0110           0
     17019 MEMB     67       SAPE     HS       HAL1     0.900000E-01   1.00800           0
     17020 MEMB     67       SAPE     O21      OSL     -0.490000       15.9994           0
     17021 MEMB     67       SAPE     C21      CL       0.900000       12.0110           0
     17022 MEMB     67       SAPE     O22      OBL     -0.630000       15.9994           0
     17023 MEMB     67       SAPE     C22      CTL2    -0.220000       12.0110           0
     17024 MEMB     67       SAPE     H2R      HAL2     0.900000E-01   1.00800           0
     17025 MEMB     67       SAPE     H2S      HAL2     0.900000E-01   1.00800           0
     17026 MEMB     67       SAPE     C3       CTL2     0.800000E-01   12.0110           0
     17027 MEMB     67       SAPE     HX       HAL2     0.900000E-01   1.00800           0
     17028 MEMB     67       SAPE     HY       HAL2     0.900000E-01   1.00800           0
     17029 MEMB     67       SAPE     O31      OSL     -0.490000       15.9994           0
     17030 MEMB     67       SAPE     C31      CL       0.900000       12.0110           0
     17031 MEMB     67       SAPE     O32      OBL     -0.630000       15.9994           0
     17032 MEMB     67       SAPE     C32      CTL2    -0.220000       12.0110           0
     17033 MEMB     67       SAPE     H2X      HAL2     0.900000E-01   1.00800           0
     17034 MEMB     67       SAPE     H2Y      HAL2     0.900000E-01   1.00800           0
     17035 MEMB     67       SAPE     C23      CTL2    -0.180000       12.0110           0
     17036 MEMB     67       SAPE     H3R      HAL2     0.900000E-01   1.00800           0
     17037 MEMB     67       SAPE     H3S      HAL2     0.900000E-01   1.00800           0
     17038 MEMB     67       SAPE     C24      CTL2    -0.180000       12.0110           0
     17039 MEMB     67       SAPE     H4R      HAL2     0.900000E-01   1.00800           0
     17040 MEMB     67       SAPE     H4S      HAL2     0.900000E-01   1.00800           0
     17041 MEMB     67       SAPE     C25      CEL1    -0.150000       12.0110           0
     17042 MEMB     67       SAPE     H5R      HEL1     0.150000       1.00800           0
     17043 MEMB     67       SAPE     C26      CEL1    -0.150000       12.0110           0
     17044 MEMB     67       SAPE     H6R      HEL1     0.150000       1.00800           0
     17045 MEMB     67       SAPE     C27      CTL2    -0.180000       12.0110           0
     17046 MEMB     67       SAPE     H7R      HAL2     0.900000E-01   1.00800           0
     17047 MEMB     67       SAPE     H7S      HAL2     0.900000E-01   1.00800           0
     17048 MEMB     67       SAPE     C28      CEL1    -0.150000       12.0110           0
     17049 MEMB     67       SAPE     H8R      HEL1     0.150000       1.00800           0
     17050 MEMB     67       SAPE     C29      CEL1    -0.150000       12.0110           0
     17051 MEMB     67       SAPE     H9R      HEL1     0.150000       1.00800           0
     17052 MEMB     67       SAPE     C210     CTL2    -0.180000       12.0110           0
     17053 MEMB     67       SAPE     H10R     HAL2     0.900000E-01   1.00800           0
     17054 MEMB     67       SAPE     H10S     HAL2     0.900000E-01   1.00800           0
     17055 MEMB     67       SAPE     C211     CEL1    -0.150000       12.0110           0
     17056 MEMB     67       SAPE     H11R     HEL1     0.150000       1.00800           0
     17057 MEMB     67       SAPE     C212     CEL1    -0.150000       12.0110           0
     17058 MEMB     67       SAPE     H12R     HEL1     0.150000       1.00800           0
     17059 MEMB     67       SAPE     C213     CTL2    -0.180000       12.0110           0
     17060 MEMB     67       SAPE     H13R     HAL2     0.900000E-01   1.00800           0
     17061 MEMB     67       SAPE     H13S     HAL2     0.900000E-01   1.00800           0
     17062 MEMB     67       SAPE     C214     CEL1    -0.150000       12.0110           0
     17063 MEMB     67       SAPE     H14R     HEL1     0.150000       1.00800           0
     17064 MEMB     67       SAPE     C215     CEL1    -0.150000       12.0110           0
     17065 MEMB     67       SAPE     H15R     HEL1     0.150000       1.00800           0
     17066 MEMB     67       SAPE     C216     CTL2    -0.180000       12.0110           0
     17067 MEMB     67       SAPE     H16R     HAL2     0.900000E-01   1.00800           0
     17068 MEMB     67       SAPE     H16S     HAL2     0.900000E-01   1.00800           0
     17069 MEMB     67       SAPE     C217     CTL2    -0.180000       12.0110           0
     17070 MEMB     67       SAPE     H17R     HAL2     0.900000E-01   1.00800           0
     17071 MEMB     67       SAPE     H17S     HAL2     0.900000E-01   1.00800           0
     17072 MEMB     67       SAPE     C218     CTL2    -0.180000       12.0110           0
     17073 MEMB     67       SAPE     H18R     HAL2     0.900000E-01   1.00800           0
     17074 MEMB     67       SAPE     H18S     HAL2     0.900000E-01   1.00800           0
     17075 MEMB     67       SAPE     C219     CTL2    -0.180000       12.0110           0
     17076 MEMB     67       SAPE     H19R     HAL2     0.900000E-01   1.00800           0
     17077 MEMB     67       SAPE     H19S     HAL2     0.900000E-01   1.00800           0
     17078 MEMB     67       SAPE     C220     CTL3    -0.270000       12.0110           0
     17079 MEMB     67       SAPE     H20R     HAL3     0.900000E-01   1.00800           0
     17080 MEMB     67       SAPE     H20S     HAL3     0.900000E-01   1.00800           0
     17081 MEMB     67       SAPE     H20T     HAL3     0.900000E-01   1.00800           0
     17082 MEMB     67       SAPE     C33      CTL2    -0.180000       12.0110           0
     17083 MEMB     67       SAPE     H3X      HAL2     0.900000E-01   1.00800           0
     17084 MEMB     67       SAPE     H3Y      HAL2     0.900000E-01   1.00800           0
     17085 MEMB     67       SAPE     C34      CTL2    -0.180000       12.0110           0
     17086 MEMB     67       SAPE     H4X      HAL2     0.900000E-01   1.00800           0
     17087 MEMB     67       SAPE     H4Y      HAL2     0.900000E-01   1.00800           0
     17088 MEMB     67       SAPE     C35      CTL2    -0.180000       12.0110           0
     17089 MEMB     67       SAPE     H5X      HAL2     0.900000E-01   1.00800           0
     17090 MEMB     67       SAPE     H5Y      HAL2     0.900000E-01   1.00800           0
     17091 MEMB     67       SAPE     C36      CTL2    -0.180000       12.0110           0
     17092 MEMB     67       SAPE     H6X      HAL2     0.900000E-01   1.00800           0
     17093 MEMB     67       SAPE     H6Y      HAL2     0.900000E-01   1.00800           0
     17094 MEMB     67       SAPE     C37      CTL2    -0.180000       12.0110           0
     17095 MEMB     67       SAPE     H7X      HAL2     0.900000E-01   1.00800           0
     17096 MEMB     67       SAPE     H7Y      HAL2     0.900000E-01   1.00800           0
     17097 MEMB     67       SAPE     C38      CTL2    -0.180000       12.0110           0
     17098 MEMB     67       SAPE     H8X      HAL2     0.900000E-01   1.00800           0
     17099 MEMB     67       SAPE     H8Y      HAL2     0.900000E-01   1.00800           0
     17100 MEMB     67       SAPE     C39      CTL2    -0.180000       12.0110           0
     17101 MEMB     67       SAPE     H9X      HAL2     0.900000E-01   1.00800           0
     17102 MEMB     67       SAPE     H9Y      HAL2     0.900000E-01   1.00800           0
     17103 MEMB     67       SAPE     C310     CTL2    -0.180000       12.0110           0
     17104 MEMB     67       SAPE     H10X     HAL2     0.900000E-01   1.00800           0
     17105 MEMB     67       SAPE     H10Y     HAL2     0.900000E-01   1.00800           0
     17106 MEMB     67       SAPE     C311     CTL2    -0.180000       12.0110           0
     17107 MEMB     67       SAPE     H11X     HAL2     0.900000E-01   1.00800           0
     17108 MEMB     67       SAPE     H11Y     HAL2     0.900000E-01   1.00800           0
     17109 MEMB     67       SAPE     C312     CTL2    -0.180000       12.0110           0
     17110 MEMB     67       SAPE     H12X     HAL2     0.900000E-01   1.00800           0
     17111 MEMB     67       SAPE     H12Y     HAL2     0.900000E-01   1.00800           0
     17112 MEMB     67       SAPE     C313     CTL2    -0.180000       12.0110           0
     17113 MEMB     67       SAPE     H13X     HAL2     0.900000E-01   1.00800           0
     17114 MEMB     67       SAPE     H13Y     HAL2     0.900000E-01   1.00800           0
     17115 MEMB     67       SAPE     C314     CTL2    -0.180000       12.0110           0
     17116 MEMB     67       SAPE     H14X     HAL2     0.900000E-01   1.00800           0
     17117 MEMB     67       SAPE     H14Y     HAL2     0.900000E-01   1.00800           0
     17118 MEMB     67       SAPE     C315     CTL2    -0.180000       12.0110           0
     17119 MEMB     67       SAPE     H15X     HAL2     0.900000E-01   1.00800           0
     17120 MEMB     67       SAPE     H15Y     HAL2     0.900000E-01   1.00800           0
     17121 MEMB     67       SAPE     C316     CTL2    -0.180000       12.0110           0
     17122 MEMB     67       SAPE     H16X     HAL2     0.900000E-01   1.00800           0
     17123 MEMB     67       SAPE     H16Y     HAL2     0.900000E-01   1.00800           0
     17124 MEMB     67       SAPE     C317     CTL2    -0.180000       12.0110           0
     17125 MEMB     67       SAPE     H17X     HAL2     0.900000E-01   1.00800           0
     17126 MEMB     67       SAPE     H17Y     HAL2     0.900000E-01   1.00800           0
     17127 MEMB     67       SAPE     C318     CTL3    -0.270000       12.0110           0
     17128 MEMB     67       SAPE     H18X     HAL3     0.900000E-01   1.00800           0
     17129 MEMB     67       SAPE     H18Y     HAL3     0.900000E-01   1.00800           0
     17130 MEMB     67       SAPE     H18Z     HAL3     0.900000E-01   1.00800           0
     17131 MEMB     80       SAPE     N        NH3L    -0.300000       14.0070           0
     17132 MEMB     80       SAPE     HN1      HCL      0.330000       1.00800           0
     17133 MEMB     80       SAPE     HN2      HCL      0.330000       1.00800           0
     17134 MEMB     80       SAPE     HN3      HCL      0.330000       1.00800           0
     17135 MEMB     80       SAPE     C12      CTL2     0.130000       12.0110           0
     17136 MEMB     80       SAPE     H12A     HAL2     0.900000E-01   1.00800           0
     17137 MEMB     80       SAPE     H12B     HAL2     0.900000E-01   1.00800           0
     17138 MEMB     80       SAPE     C11      CTL2    -0.800000E-01   12.0110           0
     17139 MEMB     80       SAPE     H11A     HAL2     0.900000E-01   1.00800           0
     17140 MEMB     80       SAPE     H11B     HAL2     0.900000E-01   1.00800           0
     17141 MEMB     80       SAPE     P        PL       1.500000       30.9740           0
     17142 MEMB     80       SAPE     O13      O2L     -0.780000       15.9994           0
     17143 MEMB     80       SAPE     O14      O2L     -0.780000       15.9994           0
     17144 MEMB     80       SAPE     O12      OSLP    -0.570000       15.9994           0
     17145 MEMB     80       SAPE     O11      OSLP    -0.570000       15.9994           0
     17146 MEMB     80       SAPE     C1       CTL2    -0.800000E-01   12.0110           0
     17147 MEMB     80       SAPE     HA       HAL2     0.900000E-01   1.00800           0
     17148 MEMB     80       SAPE     HB       HAL2     0.900000E-01   1.00800           0
     17149 MEMB     80       SAPE     C2       CTL1     0.170000       12.0110           0
     17150 MEMB     80       SAPE     HS       HAL1     0.900000E-01   1.00800           0
     17151 MEMB     80       SAPE     O21      OSL     -0.490000       15.9994           0
     17152 MEMB     80       SAPE     C21      CL       0.900000       12.0110           0
     17153 MEMB     80       SAPE     O22      OBL     -0.630000       15.9994           0
     17154 MEMB     80       SAPE     C22      CTL2    -0.220000       12.0110           0
     17155 MEMB     80       SAPE     H2R      HAL2     0.900000E-01   1.00800           0
     17156 MEMB     80       SAPE     H2S      HAL2     0.900000E-01   1.00800           0
     17157 MEMB     80       SAPE     C3       CTL2     0.800000E-01   12.0110           0
     17158 MEMB     80       SAPE     HX       HAL2     0.900000E-01   1.00800           0
     17159 MEMB     80       SAPE     HY       HAL2     0.900000E-01   1.00800           0
     17160 MEMB     80       SAPE     O31      OSL     -0.490000       15.9994           0
     17161 MEMB     80       SAPE     C31      CL       0.900000       12.0110           0
     17162 MEMB     80       SAPE     O32      OBL     -0.630000       15.9994           0
     17163 MEMB     80       SAPE     C32      CTL2    -0.220000       12.0110           0
     17164 MEMB     80       SAPE     H2X      HAL2     0.900000E-01   1.00800           0
     17165 MEMB     80       SAPE     H2Y      HAL2     0.900000E-01   1.00800           0
     17166 MEMB     80       SAPE     C23      CTL2    -0.180000       12.0110           0
     17167 MEMB     80       SAPE     H3R      HAL2     0.900000E-01   1.00800           0
     17168 MEMB     80       SAPE     H3S      HAL2     0.900000E-01   1.00800           0
     17169 MEMB     80       SAPE     C24      CTL2    -0.180000       12.0110           0
     17170 MEMB     80       SAPE     H4R      HAL2     0.900000E-01   1.00800           0
     17171 MEMB     80       SAPE     H4S      HAL2     0.900000E-01   1.00800           0
     17172 MEMB     80       SAPE     C25      CEL1    -0.150000       12.0110           0
     17173 MEMB     80       SAPE     H5R      HEL1     0.150000       1.00800           0
     17174 MEMB     80       SAPE     C26      CEL1    -0.150000       12.0110           0
     17175 MEMB     80       SAPE     H6R      HEL1     0.150000       1.00800           0
     17176 MEMB     80       SAPE     C27      CTL2    -0.180000       12.0110           0
     17177 MEMB     80       SAPE     H7R      HAL2     0.900000E-01   1.00800           0
     17178 MEMB     80       SAPE     H7S      HAL2     0.900000E-01   1.00800           0
     17179 MEMB     80       SAPE     C28      CEL1    -0.150000       12.0110           0
     17180 MEMB     80       SAPE     H8R      HEL1     0.150000       1.00800           0
     17181 MEMB     80       SAPE     C29      CEL1    -0.150000       12.0110           0
     17182 MEMB     80       SAPE     H9R      HEL1     0.150000       1.00800           0
     17183 MEMB     80       SAPE     C210     CTL2    -0.180000       12.0110           0
     17184 MEMB     80       SAPE     H10R     HAL2     0.900000E-01   1.00800           0
     17185 MEMB     80       SAPE     H10S     HAL2     0.900000E-01   1.00800           0
     17186 MEMB     80       SAPE     C211     CEL1    -0.150000       12.0110           0
     17187 MEMB     80       SAPE     H11R     HEL1     0.150000       1.00800           0
     17188 MEMB     80       SAPE     C212     CEL1    -0.150000       12.0110           0
     17189 MEMB     80       SAPE     H12R     HEL1     0.150000       1.00800           0
     17190 MEMB     80       SAPE     C213     CTL2    -0.180000       12.0110           0
     17191 MEMB     80       SAPE     H13R     HAL2     0.900000E-01   1.00800           0
     17192 MEMB     80       SAPE     H13S     HAL2     0.900000E-01   1.00800           0
     17193 MEMB     80       SAPE     C214     CEL1    -0.150000       12.0110           0
     17194 MEMB     80       SAPE     H14R     HEL1     0.150000       1.00800           0
     17195 MEMB     80       SAPE     C215     CEL1    -0.150000       12.0110           0
     17196 MEMB     80       SAPE     H15R     HEL1     0.150000       1.00800           0
     17197 MEMB     80       SAPE     C216     CTL2    -0.180000       12.0110           0
     17198 MEMB     80       SAPE     H16R     HAL2     0.900000E-01   1.00800           0
     17199 MEMB     80       SAPE     H16S     HAL2     0.900000E-01   1.00800           0
     17200 MEMB     80       SAPE     C217     CTL2    -0.180000       12.0110           0
     17201 MEMB     80       SAPE     H17R     HAL2     0.900000E-01   1.00800           0
     17202 MEMB     80       SAPE     H17S     HAL2     0.900000E-01   1.00800           0
     17203 MEMB     80       SAPE     C218     CTL2    -0.180000       12.0110           0
     17204 MEMB     80       SAPE     H18R     HAL2     0.900000E-01   1.00800           0
     17205 MEMB     80       SAPE     H18S     HAL2     0.900000E-01   1.00800           0
     17206 MEMB     80       SAPE     C219     CTL2    -0.180000       12.0110           0
     17207 MEMB     80       SAPE     H19R     HAL2     0.900000E-01   1.00800           0
     17208 MEMB     80       SAPE     H19S     HAL2     0.900000E-01   1.00800           0
     17209 MEMB     80       SAPE     C220     CTL3    -0.270000       12.0110           0
     17210 MEMB     80       SAPE     H20R     HAL3     0.900000E-01   1.00800           0
     17211 MEMB     80       SAPE     H20S     HAL3     0.900000E-01   1.00800           0
     17212 MEMB     80       SAPE     H20T     HAL3     0.900000E-01   1.00800           0
     17213 MEMB     80       SAPE     C33      CTL2    -0.180000       12.0110           0
     17214 MEMB     80       SAPE     H3X      HAL2     0.900000E-01   1.00800           0
     17215 MEMB     80       SAPE     H3Y      HAL2     0.900000E-01   1.00800           0
     17216 MEMB     80       SAPE     C34      CTL2    -0.180000       12.0110           0
     17217 MEMB     80       SAPE     H4X      HAL2     0.900000E-01   1.00800           0
     17218 MEMB     80       SAPE     H4Y      HAL2     0.900000E-01   1.00800           0
     17219 MEMB     80       SAPE     C35      CTL2    -0.180000       12.0110           0
     17220 MEMB     80       SAPE     H5X      HAL2     0.900000E-01   1.00800           0
     17221 MEMB     80       SAPE     H5Y      HAL2     0.900000E-01   1.00800           0
     17222 MEMB     80       SAPE     C36      CTL2    -0.180000       12.0110           0
     17223 MEMB     80       SAPE     H6X      HAL2     0.900000E-01   1.00800           0
     17224 MEMB     80       SAPE     H6Y      HAL2     0.900000E-01   1.00800           0
     17225 MEMB     80       SAPE     C37      CTL2    -0.180000       12.0110           0
     17226 MEMB     80       SAPE     H7X      HAL2     0.900000E-01   1.00800           0
     17227 MEMB     80       SAPE     H7Y      HAL2     0.900000E-01   1.00800           0
     17228 MEMB     80       SAPE     C38      CTL2    -0.180000       12.0110           0
     17229 MEMB     80       SAPE     H8X      HAL2     0.900000E-01   1.00800           0
     17230 MEMB     80       SAPE     H8Y      HAL2     0.900000E-01   1.00800           0
     17231 MEMB     80       SAPE     C39      CTL2    -0.180000       12.0110           0
     17232 MEMB     80       SAPE     H9X      HAL2     0.900000E-01   1.00800           0
     17233 MEMB     80       SAPE     H9Y      HAL2     0.900000E-01   1.00800           0
     17234 MEMB     80       SAPE     C310     CTL2    -0.180000       12.0110           0
     17235 MEMB     80       SAPE     H10X     HAL2     0.900000E-01   1.00800           0
     17236 MEMB     80       SAPE     H10Y     HAL2     0.900000E-01   1.00800           0
     17237 MEMB     80       SAPE     C311     CTL2    -0.180000       12.0110           0
     17238 MEMB     80       SAPE     H11X     HAL2     0.900000E-01   1.00800           0
     17239 MEMB     80       SAPE     H11Y     HAL2     0.900000E-01   1.00800           0
     17240 MEMB     80       SAPE     C312     CTL2    -0.180000       12.0110           0
     17241 MEMB     80       SAPE     H12X     HAL2     0.900000E-01   1.00800           0
     17242 MEMB     80       SAPE     H12Y     HAL2     0.900000E-01   1.00800           0
     17243 MEMB     80       SAPE     C313     CTL2    -0.180000       12.0110           0
     17244 MEMB     80       SAPE     H13X     HAL2     0.900000E-01   1.00800           0
     17245 MEMB     80       SAPE     H13Y     HAL2     0.900000E-01   1.00800           0
     17246 MEMB     80       SAPE     C314     CTL2    -0.180000       12.0110           0
     17247 MEMB     80       SAPE     H14X     HAL2     0.900000E-01   1.00800           0
     17248 MEMB     80       SAPE     H14Y     HAL2     0.900000E-01   1.00800           0
     17249 MEMB     80       SAPE     C315     CTL2    -0.180000       12.0110           0
     17250 MEMB     80       SAPE     H15X     HAL2     0.900000E-01   1.00800           0
     17251 MEMB     80       SAPE     H15Y     HAL2     0.900000E-01   1.00800           0
     17252 MEMB     80       SAPE     C316     CTL2    -0.180000       12.0110           0
     17253 MEMB     80       SAPE     H16X     HAL2     0.900000E-01   1.00800           0
     17254 MEMB     80       SAPE     H16Y     HAL2     0.900000E-01   1.00800           0
     17255 MEMB     80       SAPE     C317     CTL2    -0.180000       12.0110           0
     17256 MEMB     80       SAPE     H17X     HAL2     0.900000E-01   1.00800           0
     17257 MEMB     80       SAPE     H17Y     HAL2     0.900000E-01   1.00800           0
     17258 MEMB     80       SAPE     C318     CTL3    -0.270000       12.0110           0
     17259 MEMB     80       SAPE     H18X     HAL3     0.900000E-01   1.00800           0
     17260 MEMB     80       SAPE     H18Y     HAL3     0.900000E-01   1.00800           0
     17261 MEMB     80       SAPE     H18Z     HAL3     0.900000E-01   1.00800           0
     17262 MEMB     82       SAPE     N        NH3L    -0.300000       14.0070           0
     17263 MEMB     82       SAPE     HN1      HCL      0.330000       1.00800           0
     17264 MEMB     82       SAPE     HN2      HCL      0.330000       1.00800           0
     17265 MEMB     82       SAPE     HN3      HCL      0.330000       1.00800           0
     17266 MEMB     82       SAPE     C12      CTL2     0.130000       12.0110           0
     17267 MEMB     82       SAPE     H12A     HAL2     0.900000E-01   1.00800           0
     17268 MEMB     82       SAPE     H12B     HAL2     0.900000E-01   1.00800           0
     17269 MEMB     82       SAPE     C11      CTL2    -0.800000E-01   12.0110           0
     17270 MEMB     82       SAPE     H11A     HAL2     0.900000E-01   1.00800           0
     17271 MEMB     82       SAPE     H11B     HAL2     0.900000E-01   1.00800           0
     17272 MEMB     82       SAPE     P        PL       1.500000       30.9740           0
     17273 MEMB     82       SAPE     O13      O2L     -0.780000       15.9994           0
     17274 MEMB     82       SAPE     O14      O2L     -0.780000       15.9994           0
     17275 MEMB     82       SAPE     O12      OSLP    -0.570000       15.9994           0
     17276 MEMB     82       SAPE     O11      OSLP    -0.570000       15.9994           0
     17277 MEMB     82       SAPE     C1       CTL2    -0.800000E-01   12.0110           0
     17278 MEMB     82       SAPE     HA       HAL2     0.900000E-01   1.00800           0
     17279 MEMB     82       SAPE     HB       HAL2     0.900000E-01   1.00800           0
     17280 MEMB     82       SAPE     C2       CTL1     0.170000       12.0110           0
     17281 MEMB     82       SAPE     HS       HAL1     0.900000E-01   1.00800           0
     17282 MEMB     82       SAPE     O21      OSL     -0.490000       15.9994           0
     17283 MEMB     82       SAPE     C21      CL       0.900000       12.0110           0
     17284 MEMB     82       SAPE     O22      OBL     -0.630000       15.9994           0
     17285 MEMB     82       SAPE     C22      CTL2    -0.220000       12.0110           0
     17286 MEMB     82       SAPE     H2R      HAL2     0.900000E-01   1.00800           0
     17287 MEMB     82       SAPE     H2S      HAL2     0.900000E-01   1.00800           0
     17288 MEMB     82       SAPE     C3       CTL2     0.800000E-01   12.0110           0
     17289 MEMB     82       SAPE     HX       HAL2     0.900000E-01   1.00800           0
     17290 MEMB     82       SAPE     HY       HAL2     0.900000E-01   1.00800           0
     17291 MEMB     82       SAPE     O31      OSL     -0.490000       15.9994           0
     17292 MEMB     82       SAPE     C31      CL       0.900000       12.0110           0
     17293 MEMB     82       SAPE     O32      OBL     -0.630000       15.9994           0
     17294 MEMB     82       SAPE     C32      CTL2    -0.220000       12.0110           0
     17295 MEMB     82       SAPE     H2X      HAL2     0.900000E-01   1.00800           0
     17296 MEMB     82       SAPE     H2Y      HAL2     0.900000E-01   1.00800           0
     17297 MEMB     82       SAPE     C23      CTL2    -0.180000       12.0110           0
     17298 MEMB     82       SAPE     H3R      HAL2     0.900000E-01   1.00800           0
     17299 MEMB     82       SAPE     H3S      HAL2     0.900000E-01   1.00800           0
     17300 MEMB     82       SAPE     C24      CTL2    -0.180000       12.0110           0
     17301 MEMB     82       SAPE     H4R      HAL2     0.900000E-01   1.00800           0
     17302 MEMB     82       SAPE     H4S      HAL2     0.900000E-01   1.00800           0
     17303 MEMB     82       SAPE     C25      CEL1    -0.150000       12.0110           0
     17304 MEMB     82       SAPE     H5R      HEL1     0.150000       1.00800           0
     17305 MEMB     82       SAPE     C26      CEL1    -0.150000       12.0110           0
     17306 MEMB     82       SAPE     H6R      HEL1     0.150000       1.00800           0
     17307 MEMB     82       SAPE     C27      CTL2    -0.180000       12.0110           0
     17308 MEMB     82       SAPE     H7R      HAL2     0.900000E-01   1.00800           0
     17309 MEMB     82       SAPE     H7S      HAL2     0.900000E-01   1.00800           0
     17310 MEMB     82       SAPE     C28      CEL1    -0.150000       12.0110           0
     17311 MEMB     82       SAPE     H8R      HEL1     0.150000       1.00800           0
     17312 MEMB     82       SAPE     C29      CEL1    -0.150000       12.0110           0
     17313 MEMB     82       SAPE     H9R      HEL1     0.150000       1.00800           0
     17314 MEMB     82       SAPE     C210     CTL2    -0.180000       12.0110           0
     17315 MEMB     82       SAPE     H10R     HAL2     0.900000E-01   1.00800           0
     17316 MEMB     82       SAPE     H10S     HAL2     0.900000E-01   1.00800           0
     17317 MEMB     82       SAPE     C211     CEL1    -0.150000       12.0110           0
     17318 MEMB     82       SAPE     H11R     HEL1     0.150000       1.00800           0
     17319 MEMB     82       SAPE     C212     CEL1    -0.150000       12.0110           0
     17320 MEMB     82       SAPE     H12R     HEL1     0.150000       1.00800           0
     17321 MEMB     82       SAPE     C213     CTL2    -0.180000       12.0110           0
     17322 MEMB     82       SAPE     H13R     HAL2     0.900000E-01   1.00800           0
     17323 MEMB     82       SAPE     H13S     HAL2     0.900000E-01   1.00800           0
     17324 MEMB     82       SAPE     C214     CEL1    -0.150000       12.0110           0
     17325 MEMB     82       SAPE     H14R     HEL1     0.150000       1.00800           0
     17326 MEMB     82       SAPE     C215     CEL1    -0.150000       12.0110           0
     17327 MEMB     82       SAPE     H15R     HEL1     0.150000       1.00800           0
     17328 MEMB     82       SAPE     C216     CTL2    -0.180000       12.0110           0
     17329 MEMB     82       SAPE     H16R     HAL2     0.900000E-01   1.00800           0
     17330 MEMB     82       SAPE     H16S     HAL2     0.900000E-01   1.00800           0
     17331 MEMB     82       SAPE     C217     CTL2    -0.180000       12.0110           0
     17332 MEMB     82       SAPE     H17R     HAL2     0.900000E-01   1.00800           0
     17333 MEMB     82       SAPE     H17S     HAL2     0.900000E-01   1.00800           0
     17334 MEMB     82       SAPE     C218     CTL2    -0.180000       12.0110           0
     17335 MEMB     82       SAPE     H18R     HAL2     0.900000E-01   1.00800           0
     17336 MEMB     82       SAPE     H18S     HAL2     0.900000E-01   1.00800           0
     17337 MEMB     82       SAPE     C219     CTL2    -0.180000       12.0110           0
     17338 MEMB     82       SAPE     H19R     HAL2     0.900000E-01   1.00800           0
     17339 MEMB     82       SAPE     H19S     HAL2     0.900000E-01   1.00800           0
     17340 MEMB     82       SAPE     C220     CTL3    -0.270000       12.0110           0
     17341 MEMB     82       SAPE     H20R     HAL3     0.900000E-01   1.00800           0
     17342 MEMB     82       SAPE     H20S     HAL3     0.900000E-01   1.00800           0
     17343 MEMB     82       SAPE     H20T     HAL3     0.900000E-01   1.00800           0
     17344 MEMB     82       SAPE     C33      CTL2    -0.180000       12.0110           0
     17345 MEMB     82       SAPE     H3X      HAL2     0.900000E-01   1.00800           0
     17346 MEMB     82       SAPE     H3Y      HAL2     0.900000E-01   1.00800           0
     17347 MEMB     82       SAPE     C34      CTL2    -0.180000       12.0110           0
     17348 MEMB     82       SAPE     H4X      HAL2     0.900000E-01   1.00800           0
     17349 MEMB     82       SAPE     H4Y      HAL2     0.900000E-01   1.00800           0
     17350 MEMB     82       SAPE     C35      CTL2    -0.180000       12.0110           0
     17351 MEMB     82       SAPE     H5X      HAL2     0.900000E-01   1.00800           0
     17352 MEMB     82       SAPE     H5Y      HAL2     0.900000E-01   1.00800           0
     17353 MEMB     82       SAPE     C36      CTL2    -0.180000       12.0110           0
     17354 MEMB     82       SAPE     H6X      HAL2     0.900000E-01   1.00800           0
     17355 MEMB     82       SAPE     H6Y      HAL2     0.900000E-01   1.00800           0
     17356 MEMB     82       SAPE     C37      CTL2    -0.180000       12.0110           0
     17357 MEMB     82       SAPE     H7X      HAL2     0.900000E-01   1.00800           0
     17358 MEMB     82       SAPE     H7Y      HAL2     0.900000E-01   1.00800           0
     17359 MEMB     82       SAPE     C38      CTL2    -0.180000       12.0110           0
     17360 MEMB     82       SAPE     H8X      HAL2     0.900000E-01   1.00800           0
     17361 MEMB     82       SAPE     H8Y      HAL2     0.900000E-01   1.00800           0
     17362 MEMB     82       SAPE     C39      CTL2    -0.180000       12.0110           0
     17363 MEMB     82       SAPE     H9X      HAL2     0.900000E-01   1.00800           0
     17364 MEMB     82       SAPE     H9Y      HAL2     0.900000E-01   1.00800           0
     17365 MEMB     82       SAPE     C310     CTL2    -0.180000       12.0110           0
     17366 MEMB     82       SAPE     H10X     HAL2     0.900000E-01   1.00800           0
     17367 MEMB     82       SAPE     H10Y     HAL2     0.900000E-01   1.00800           0
     17368 MEMB     82       SAPE     C311     CTL2    -0.180000       12.0110           0
     17369 MEMB     82       SAPE     H11X     HAL2     0.900000E-01   1.00800           0
     17370 MEMB     82       SAPE     H11Y     HAL2     0.900000E-01   1.00800           0
     17371 MEMB     82       SAPE     C312     CTL2    -0.180000       12.0110           0
     17372 MEMB     82       SAPE     H12X     HAL2     0.900000E-01   1.00800           0
     17373 MEMB     82       SAPE     H12Y     HAL2     0.900000E-01   1.00800           0
     17374 MEMB     82       SAPE     C313     CTL2    -0.180000       12.0110           0
     17375 MEMB     82       SAPE     H13X     HAL2     0.900000E-01   1.00800           0
     17376 MEMB     82       SAPE     H13Y     HAL2     0.900000E-01   1.00800           0
     17377 MEMB     82       SAPE     C314     CTL2    -0.180000       12.0110           0
     17378 MEMB     82       SAPE     H14X     HAL2     0.900000E-01   1.00800           0
     17379 MEMB     82       SAPE     H14Y     HAL2     0.900000E-01   1.00800           0
     17380 MEMB     82       SAPE     C315     CTL2    -0.180000       12.0110           0
     17381 MEMB     82       SAPE     H15X     HAL2     0.900000E-01   1.00800           0
     17382 MEMB     82       SAPE     H15Y     HAL2     0.900000E-01   1.00800           0
     17383 MEMB     82       SAPE     C316     CTL2    -0.180000       12.0110           0
     17384 MEMB     82       SAPE     H16X     HAL2     0.900000E-01   1.00800           0
     17385 MEMB     82       SAPE     H16Y     HAL2     0.900000E-01   1.00800           0
     17386 MEMB     82       SAPE     C317     CTL2    -0.180000       12.0110           0
     17387 MEMB     82       SAPE     H17X     HAL2     0.900000E-01   1.00800           0
     17388 MEMB     82       SAPE     H17Y     HAL2     0.900000E-01   1.00800           0
     17389 MEMB     82       SAPE     C318     CTL3    -0.270000       12.0110           0
     17390 MEMB     82       SAPE     H18X     HAL3     0.900000E-01   1.00800           0
     17391 MEMB     82       SAPE     H18Y     HAL3     0.900000E-01   1.00800           0
     17392 MEMB     82       SAPE     H18Z     HAL3     0.900000E-01   1.00800           0
     17393 MEMB     85       SAPE     N        NH3L    -0.300000       14.0070           0
     17394 MEMB     85       SAPE     HN1      HCL      0.330000       1.00800           0
     17395 MEMB     85       SAPE     HN2      HCL      0.330000       1.00800           0
     17396 MEMB     85       SAPE     HN3      HCL      0.330000       1.00800           0
     17397 MEMB     85       SAPE     C12      CTL2     0.130000       12.0110           0
     17398 MEMB     85       SAPE     H12A     HAL2     0.900000E-01   1.00800           0
     17399 MEMB     85       SAPE     H12B     HAL2     0.900000E-01   1.00800           0
     17400 MEMB     85       SAPE     C11      CTL2    -0.800000E-01   12.0110           0
     17401 MEMB     85       SAPE     H11A     HAL2     0.900000E-01   1.00800           0
     17402 MEMB     85       SAPE     H11B     HAL2     0.900000E-01   1.00800           0
     17403 MEMB     85       SAPE     P        PL       1.500000       30.9740           0
     17404 MEMB     85       SAPE     O13      O2L     -0.780000       15.9994           0
     17405 MEMB     85       SAPE     O14      O2L     -0.780000       15.9994           0
     17406 MEMB     85       SAPE     O12      OSLP    -0.570000       15.9994           0
     17407 MEMB     85       SAPE     O11      OSLP    -0.570000       15.9994           0
     17408 MEMB     85       SAPE     C1       CTL2    -0.800000E-01   12.0110           0
     17409 MEMB     85       SAPE     HA       HAL2     0.900000E-01   1.00800           0
     17410 MEMB     85       SAPE     HB       HAL2     0.900000E-01   1.00800           0
     17411 MEMB     85       SAPE     C2       CTL1     0.170000       12.0110           0
     17412 MEMB     85       SAPE     HS       HAL1     0.900000E-01   1.00800           0
     17413 MEMB     85       SAPE     O21      OSL     -0.490000       15.9994           0
     17414 MEMB     85       SAPE     C21      CL       0.900000       12.0110           0
     17415 MEMB     85       SAPE     O22      OBL     -0.630000       15.9994           0
     17416 MEMB     85       SAPE     C22      CTL2    -0.220000       12.0110           0
     17417 MEMB     85       SAPE     H2R      HAL2     0.900000E-01   1.00800           0
     17418 MEMB     85       SAPE     H2S      HAL2     0.900000E-01   1.00800           0
     17419 MEMB     85       SAPE     C3       CTL2     0.800000E-01   12.0110           0
     17420 MEMB     85       SAPE     HX       HAL2     0.900000E-01   1.00800           0
     17421 MEMB     85       SAPE     HY       HAL2     0.900000E-01   1.00800           0
     17422 MEMB     85       SAPE     O31      OSL     -0.490000       15.9994           0
     17423 MEMB     85       SAPE     C31      CL       0.900000       12.0110           0
     17424 MEMB     85       SAPE     O32      OBL     -0.630000       15.9994           0
     17425 MEMB     85       SAPE     C32      CTL2    -0.220000       12.0110           0
     17426 MEMB     85       SAPE     H2X      HAL2     0.900000E-01   1.00800           0
     17427 MEMB     85       SAPE     H2Y      HAL2     0.900000E-01   1.00800           0
     17428 MEMB     85       SAPE     C23      CTL2    -0.180000       12.0110           0
     17429 MEMB     85       SAPE     H3R      HAL2     0.900000E-01   1.00800           0
     17430 MEMB     85       SAPE     H3S      HAL2     0.900000E-01   1.00800           0
     17431 MEMB     85       SAPE     C24      CTL2    -0.180000       12.0110           0
     17432 MEMB     85       SAPE     H4R      HAL2     0.900000E-01   1.00800           0
     17433 MEMB     85       SAPE     H4S      HAL2     0.900000E-01   1.00800           0
     17434 MEMB     85       SAPE     C25      CEL1    -0.150000       12.0110           0
     17435 MEMB     85       SAPE     H5R      HEL1     0.150000       1.00800           0
     17436 MEMB     85       SAPE     C26      CEL1    -0.150000       12.0110           0
     17437 MEMB     85       SAPE     H6R      HEL1     0.150000       1.00800           0
     17438 MEMB     85       SAPE     C27      CTL2    -0.180000       12.0110           0
     17439 MEMB     85       SAPE     H7R      HAL2     0.900000E-01   1.00800           0
     17440 MEMB     85       SAPE     H7S      HAL2     0.900000E-01   1.00800           0
     17441 MEMB     85       SAPE     C28      CEL1    -0.150000       12.0110           0
     17442 MEMB     85       SAPE     H8R      HEL1     0.150000       1.00800           0
     17443 MEMB     85       SAPE     C29      CEL1    -0.150000       12.0110           0
     17444 MEMB     85       SAPE     H9R      HEL1     0.150000       1.00800           0
     17445 MEMB     85       SAPE     C210     CTL2    -0.180000       12.0110           0
     17446 MEMB     85       SAPE     H10R     HAL2     0.900000E-01   1.00800           0
     17447 MEMB     85       SAPE     H10S     HAL2     0.900000E-01   1.00800           0
     17448 MEMB     85       SAPE     C211     CEL1    -0.150000       12.0110           0
     17449 MEMB     85       SAPE     H11R     HEL1     0.150000       1.00800           0
     17450 MEMB     85       SAPE     C212     CEL1    -0.150000       12.0110           0
     17451 MEMB     85       SAPE     H12R     HEL1     0.150000       1.00800           0
     17452 MEMB     85       SAPE     C213     CTL2    -0.180000       12.0110           0
     17453 MEMB     85       SAPE     H13R     HAL2     0.900000E-01   1.00800           0
     17454 MEMB     85       SAPE     H13S     HAL2     0.900000E-01   1.00800           0
     17455 MEMB     85       SAPE     C214     CEL1    -0.150000       12.0110           0
     17456 MEMB     85       SAPE     H14R     HEL1     0.150000       1.00800           0
     17457 MEMB     85       SAPE     C215     CEL1    -0.150000       12.0110           0
     17458 MEMB     85       SAPE     H15R     HEL1     0.150000       1.00800           0
     17459 MEMB     85       SAPE     C216     CTL2    -0.180000       12.0110           0
     17460 MEMB     85       SAPE     H16R     HAL2     0.900000E-01   1.00800           0
     17461 MEMB     85       SAPE     H16S     HAL2     0.900000E-01   1.00800           0
     17462 MEMB     85       SAPE     C217     CTL2    -0.180000       12.0110           0
     17463 MEMB     85       SAPE     H17R     HAL2     0.900000E-01   1.00800           0
     17464 MEMB     85       SAPE     H17S     HAL2     0.900000E-01   1.00800           0
     17465 MEMB     85       SAPE     C218     CTL2    -0.180000       12.0110           0
     17466 MEMB     85       SAPE     H18R     HAL2     0.900000E-01   1.00800           0
     17467 MEMB     85       SAPE     H18S     HAL2     0.900000E-01   1.00800           0
     17468 MEMB     85       SAPE     C219     CTL2    -0.180000       12.0110           0
     17469 MEMB     85       SAPE     H19R     HAL2     0.900000E-01   1.00800           0
     17470 MEMB     85       SAPE     H19S     HAL2     0.900000E-01   1.00800           0
     17471 MEMB     85       SAPE     C220     CTL3    -0.270000       12.0110           0
     17472 MEMB     85       SAPE     H20R     HAL3     0.900000E-01   1.00800           0
     17473 MEMB     85       SAPE     H20S     HAL3     0.900000E-01   1.00800           0
     17474 MEMB     85       SAPE     H20T     HAL3     0.900000E-01   1.00800           0
     17475 MEMB     85       SAPE     C33      CTL2    -0.180000       12.0110           0
     17476 MEMB     85       SAPE     H3X      HAL2     0.900000E-01   1.00800           0
     17477 MEMB     85       SAPE     H3Y      HAL2     0.900000E-01   1.00800           0
     17478 MEMB     85       SAPE     C34      CTL2    -0.180000       12.0110           0
     17479 MEMB     85       SAPE     H4X      HAL2     0.900000E-01   1.00800           0
     17480 MEMB     85       SAPE     H4Y      HAL2     0.900000E-01   1.00800           0
     17481 MEMB     85       SAPE     C35      CTL2    -0.180000       12.0110           0
     17482 MEMB     85       SAPE     H5X      HAL2     0.900000E-01   1.00800           0
     17483 MEMB     85       SAPE     H5Y      HAL2     0.900000E-01   1.00800           0
     17484 MEMB     85       SAPE     C36      CTL2    -0.180000       12.0110           0
     17485 MEMB     85       SAPE     H6X      HAL2     0.900000E-01   1.00800           0
     17486 MEMB     85       SAPE     H6Y      HAL2     0.900000E-01   1.00800           0
     17487 MEMB     85       SAPE     C37      CTL2    -0.180000       12.0110           0
     17488 MEMB     85       SAPE     H7X      HAL2     0.900000E-01   1.00800           0
     17489 MEMB     85       SAPE     H7Y      HAL2     0.900000E-01   1.00800           0
     17490 MEMB     85       SAPE     C38      CTL2    -0.180000       12.0110           0
     17491 MEMB     85       SAPE     H8X      HAL2     0.900000E-01   1.00800           0
     17492 MEMB     85       SAPE     H8Y      HAL2     0.900000E-01   1.00800           0
     17493 MEMB     85       SAPE     C39      CTL2    -0.180000       12.0110           0
     17494 MEMB     85       SAPE     H9X      HAL2     0.900000E-01   1.00800           0
     17495 MEMB     85       SAPE     H9Y      HAL2     0.900000E-01   1.00800           0
     17496 MEMB     85       SAPE     C310     CTL2    -0.180000       12.0110           0
     17497 MEMB     85       SAPE     H10X     HAL2     0.900000E-01   1.00800           0
     17498 MEMB     85       SAPE     H10Y     HAL2     0.900000E-01   1.00800           0
     17499 MEMB     85       SAPE     C311     CTL2    -0.180000       12.0110           0
     17500 MEMB     85       SAPE     H11X     HAL2     0.900000E-01   1.00800           0
     17501 MEMB     85       SAPE     H11Y     HAL2     0.900000E-01   1.00800           0
     17502 MEMB     85       SAPE     C312     CTL2    -0.180000       12.0110           0
     17503 MEMB     85       SAPE     H12X     HAL2     0.900000E-01   1.00800           0
     17504 MEMB     85       SAPE     H12Y     HAL2     0.900000E-01   1.00800           0
     17505 MEMB     85       SAPE     C313     CTL2    -0.180000       12.0110           0
     17506 MEMB     85       SAPE     H13X     HAL2     0.900000E-01   1.00800           0
     17507 MEMB     85       SAPE     H13Y     HAL2     0.900000E-01   1.00800           0
     17508 MEMB     85       SAPE     C314     CTL2    -0.180000       12.0110           0
     17509 MEMB     85       SAPE     H14X     HAL2     0.900000E-01   1.00800           0
     17510 MEMB     85       SAPE     H14Y     HAL2     0.900000E-01   1.00800           0
     17511 MEMB     85       SAPE     C315     CTL2    -0.180000       12.0110           0
     17512 MEMB     85       SAPE     H15X     HAL2     0.900000E-01   1.00800           0
     17513 MEMB     85       SAPE     H15Y     HAL2     0.900000E-01   1.00800           0
     17514 MEMB     85       SAPE     C316     CTL2    -0.180000       12.0110           0
     17515 MEMB     85       SAPE     H16X     HAL2     0.900000E-01   1.00800           0
     17516 MEMB     85       SAPE     H16Y     HAL2     0.900000E-01   1.00800           0
     17517 MEMB     85       SAPE     C317     CTL2    -0.180000       12.0110           0
     17518 MEMB     85       SAPE     H17X     HAL2     0.900000E-01   1.00800           0
     17519 MEMB     85       SAPE     H17Y     HAL2     0.900000E-01   1.00800           0
     17520 MEMB     85       SAPE     C318     CTL3    -0.270000       12.0110           0
     17521 MEMB     85       SAPE     H18X     HAL3     0.900000E-01   1.00800           0
     17522 MEMB     85       SAPE     H18Y     HAL3     0.900000E-01   1.00800           0
     17523 MEMB     85       SAPE     H18Z     HAL3     0.900000E-01   1.00800           0
     17524 MEMB     90       SAPE     N        NH3L    -0.300000       14.0070           0
     17525 MEMB     90       SAPE     HN1      HCL      0.330000       1.00800           0
     17526 MEMB     90       SAPE     HN2      HCL      0.330000       1.00800           0
     17527 MEMB     90       SAPE     HN3      HCL      0.330000       1.00800           0
     17528 MEMB     90       SAPE     C12      CTL2     0.130000       12.0110           0
     17529 MEMB     90       SAPE     H12A     HAL2     0.900000E-01   1.00800           0
     17530 MEMB     90       SAPE     H12B     HAL2     0.900000E-01   1.00800           0
     17531 MEMB     90       SAPE     C11      CTL2    -0.800000E-01   12.0110           0
     17532 MEMB     90       SAPE     H11A     HAL2     0.900000E-01   1.00800           0
     17533 MEMB     90       SAPE     H11B     HAL2     0.900000E-01   1.00800           0
     17534 MEMB     90       SAPE     P        PL       1.500000       30.9740           0
     17535 MEMB     90       SAPE     O13      O2L     -0.780000       15.9994           0
     17536 MEMB     90       SAPE     O14      O2L     -0.780000       15.9994           0
     17537 MEMB     90       SAPE     O12      OSLP    -0.570000       15.9994           0
     17538 MEMB     90       SAPE     O11      OSLP    -0.570000       15.9994           0
     17539 MEMB     90       SAPE     C1       CTL2    -0.800000E-01   12.0110           0
     17540 MEMB     90       SAPE     HA       HAL2     0.900000E-01   1.00800           0
     17541 MEMB     90       SAPE     HB       HAL2     0.900000E-01   1.00800           0
     17542 MEMB     90       SAPE     C2       CTL1     0.170000       12.0110           0
     17543 MEMB     90       SAPE     HS       HAL1     0.900000E-01   1.00800           0
     17544 MEMB     90       SAPE     O21      OSL     -0.490000       15.9994           0
     17545 MEMB     90       SAPE     C21      CL       0.900000       12.0110           0
     17546 MEMB     90       SAPE     O22      OBL     -0.630000       15.9994           0
     17547 MEMB     90       SAPE     C22      CTL2    -0.220000       12.0110           0
     17548 MEMB     90       SAPE     H2R      HAL2     0.900000E-01   1.00800           0
     17549 MEMB     90       SAPE     H2S      HAL2     0.900000E-01   1.00800           0
     17550 MEMB     90       SAPE     C3       CTL2     0.800000E-01   12.0110           0
     17551 MEMB     90       SAPE     HX       HAL2     0.900000E-01   1.00800           0
     17552 MEMB     90       SAPE     HY       HAL2     0.900000E-01   1.00800           0
     17553 MEMB     90       SAPE     O31      OSL     -0.490000       15.9994           0
     17554 MEMB     90       SAPE     C31      CL       0.900000       12.0110           0
     17555 MEMB     90       SAPE     O32      OBL     -0.630000       15.9994           0
     17556 MEMB     90       SAPE     C32      CTL2    -0.220000       12.0110           0
     17557 MEMB     90       SAPE     H2X      HAL2     0.900000E-01   1.00800           0
     17558 MEMB     90       SAPE     H2Y      HAL2     0.900000E-01   1.00800           0
     17559 MEMB     90       SAPE     C23      CTL2    -0.180000       12.0110           0
     17560 MEMB     90       SAPE     H3R      HAL2     0.900000E-01   1.00800           0
     17561 MEMB     90       SAPE     H3S      HAL2     0.900000E-01   1.00800           0
     17562 MEMB     90       SAPE     C24      CTL2    -0.180000       12.0110           0
     17563 MEMB     90       SAPE     H4R      HAL2     0.900000E-01   1.00800           0
     17564 MEMB     90       SAPE     H4S      HAL2     0.900000E-01   1.00800           0
     17565 MEMB     90       SAPE     C25      CEL1    -0.150000       12.0110           0
     17566 MEMB     90       SAPE     H5R      HEL1     0.150000       1.00800           0
     17567 MEMB     90       SAPE     C26      CEL1    -0.150000       12.0110           0
     17568 MEMB     90       SAPE     H6R      HEL1     0.150000       1.00800           0
     17569 MEMB     90       SAPE     C27      CTL2    -0.180000       12.0110           0
     17570 MEMB     90       SAPE     H7R      HAL2     0.900000E-01   1.00800           0
     17571 MEMB     90       SAPE     H7S      HAL2     0.900000E-01   1.00800           0
     17572 MEMB     90       SAPE     C28      CEL1    -0.150000       12.0110           0
     17573 MEMB     90       SAPE     H8R      HEL1     0.150000       1.00800           0
     17574 MEMB     90       SAPE     C29      CEL1    -0.150000       12.0110           0
     17575 MEMB     90       SAPE     H9R      HEL1     0.150000       1.00800           0
     17576 MEMB     90       SAPE     C210     CTL2    -0.180000       12.0110           0
     17577 MEMB     90       SAPE     H10R     HAL2     0.900000E-01   1.00800           0
     17578 MEMB     90       SAPE     H10S     HAL2     0.900000E-01   1.00800           0
     17579 MEMB     90       SAPE     C211     CEL1    -0.150000       12.0110           0
     17580 MEMB     90       SAPE     H11R     HEL1     0.150000       1.00800           0
     17581 MEMB     90       SAPE     C212     CEL1    -0.150000       12.0110           0
     17582 MEMB     90       SAPE     H12R     HEL1     0.150000       1.00800           0
     17583 MEMB     90       SAPE     C213     CTL2    -0.180000       12.0110           0
     17584 MEMB     90       SAPE     H13R     HAL2     0.900000E-01   1.00800           0
     17585 MEMB     90       SAPE     H13S     HAL2     0.900000E-01   1.00800           0
     17586 MEMB     90       SAPE     C214     CEL1    -0.150000       12.0110           0
     17587 MEMB     90       SAPE     H14R     HEL1     0.150000       1.00800           0
     17588 MEMB     90       SAPE     C215     CEL1    -0.150000       12.0110           0
     17589 MEMB     90       SAPE     H15R     HEL1     0.150000       1.00800           0
     17590 MEMB     90       SAPE     C216     CTL2    -0.180000       12.0110           0
     17591 MEMB     90       SAPE     H16R     HAL2     0.900000E-01   1.00800           0
     17592 MEMB     90       SAPE     H16S     HAL2     0.900000E-01   1.00800           0
     17593 MEMB     90       SAPE     C217     CTL2    -0.180000       12.0110           0
     17594 MEMB     90       SAPE     H17R     HAL2     0.900000E-01   1.00800           0
     17595 MEMB     90       SAPE     H17S     HAL2     0.900000E-01   1.00800           0
     17596 MEMB     90       SAPE     C218     CTL2    -0.180000       12.0110           0
     17597 MEMB     90       SAPE     H18R     HAL2     0.900000E-01   1.00800           0
     17598 MEMB     90       SAPE     H18S     HAL2     0.900000E-01   1.00800           0
     17599 MEMB     90       SAPE     C219     CTL2    -0.180000       12.0110           0
     17600 MEMB     90       SAPE     H19R     HAL2     0.900000E-01   1.00800           0
     17601 MEMB     90       SAPE     H19S     HAL2     0.900000E-01   1.00800           0
     17602 MEMB     90       SAPE     C220     CTL3    -0.270000       12.0110           0
     17603 MEMB     90       SAPE     H20R     HAL3     0.900000E-01   1.00800           0
     17604 MEMB     90       SAPE     H20S     HAL3     0.900000E-01   1.00800           0
     17605 MEMB     90       SAPE     H20T     HAL3     0.900000E-01   1.00800           0
     17606 MEMB     90       SAPE     C33      CTL2    -0.180000       12.0110           0
     17607 MEMB     90       SAPE     H3X      HAL2     0.900000E-01   1.00800           0
     17608 MEMB     90       SAPE     H3Y      HAL2     0.900000E-01   1.00800           0
     17609 MEMB     90       SAPE     C34      CTL2    -0.180000       12.0110           0
     17610 MEMB     90       SAPE     H4X      HAL2     0.900000E-01   1.00800           0
     17611 MEMB     90       SAPE     H4Y      HAL2     0.900000E-01   1.00800           0
     17612 MEMB     90       SAPE     C35      CTL2    -0.180000       12.0110           0
     17613 MEMB     90       SAPE     H5X      HAL2     0.900000E-01   1.00800           0
     17614 MEMB     90       SAPE     H5Y      HAL2     0.900000E-01   1.00800           0
     17615 MEMB     90       SAPE     C36      CTL2    -0.180000       12.0110           0
     17616 MEMB     90       SAPE     H6X      HAL2     0.900000E-01   1.00800           0
     17617 MEMB     90       SAPE     H6Y      HAL2     0.900000E-01   1.00800           0
     17618 MEMB     90       SAPE     C37      CTL2    -0.180000       12.0110           0
     17619 MEMB     90       SAPE     H7X      HAL2     0.900000E-01   1.00800           0
     17620 MEMB     90       SAPE     H7Y      HAL2     0.900000E-01   1.00800           0
     17621 MEMB     90       SAPE     C38      CTL2    -0.180000       12.0110           0
     17622 MEMB     90       SAPE     H8X      HAL2     0.900000E-01   1.00800           0
     17623 MEMB     90       SAPE     H8Y      HAL2     0.900000E-01   1.00800           0
     17624 MEMB     90       SAPE     C39      CTL2    -0.180000       12.0110           0
     17625 MEMB     90       SAPE     H9X      HAL2     0.900000E-01   1.00800           0
     17626 MEMB     90       SAPE     H9Y      HAL2     0.900000E-01   1.00800           0
     17627 MEMB     90       SAPE     C310     CTL2    -0.180000       12.0110           0
     17628 MEMB     90       SAPE     H10X     HAL2     0.900000E-01   1.00800           0
     17629 MEMB     90       SAPE     H10Y     HAL2     0.900000E-01   1.00800           0
     17630 MEMB     90       SAPE     C311     CTL2    -0.180000       12.0110           0
     17631 MEMB     90       SAPE     H11X     HAL2     0.900000E-01   1.00800           0
     17632 MEMB     90       SAPE     H11Y     HAL2     0.900000E-01   1.00800           0
     17633 MEMB     90       SAPE     C312     CTL2    -0.180000       12.0110           0
     17634 MEMB     90       SAPE     H12X     HAL2     0.900000E-01   1.00800           0
     17635 MEMB     90       SAPE     H12Y     HAL2     0.900000E-01   1.00800           0
     17636 MEMB     90       SAPE     C313     CTL2    -0.180000       12.0110           0
     17637 MEMB     90       SAPE     H13X     HAL2     0.900000E-01   1.00800           0
     17638 MEMB     90       SAPE     H13Y     HAL2     0.900000E-01   1.00800           0
     17639 MEMB     90       SAPE     C314     CTL2    -0.180000       12.0110           0
     17640 MEMB     90       SAPE     H14X     HAL2     0.900000E-01   1.00800           0
     17641 MEMB     90       SAPE     H14Y     HAL2     0.900000E-01   1.00800           0
     17642 MEMB     90       SAPE     C315     CTL2    -0.180000       12.0110           0
     17643 MEMB     90       SAPE     H15X     HAL2     0.900000E-01   1.00800           0
     17644 MEMB     90       SAPE     H15Y     HAL2     0.900000E-01   1.00800           0
     17645 MEMB     90       SAPE     C316     CTL2    -0.180000       12.0110           0
     17646 MEMB     90       SAPE     H16X     HAL2     0.900000E-01   1.00800           0
     17647 MEMB     90       SAPE     H16Y     HAL2     0.900000E-01   1.00800           0
     17648 MEMB     90       SAPE     C317     CTL2    -0.180000       12.0110           0
     17649 MEMB     90       SAPE     H17X     HAL2     0.900000E-01   1.00800           0
     17650 MEMB     90       SAPE     H17Y     HAL2     0.900000E-01   1.00800           0
     17651 MEMB     90       SAPE     C318     CTL3    -0.270000       12.0110           0
     17652 MEMB     90       SAPE     H18X     HAL3     0.900000E-01   1.00800           0
     17653 MEMB     90       SAPE     H18Y     HAL3     0.900000E-01   1.00800           0
     17654 MEMB     90       SAPE     H18Z     HAL3     0.900000E-01   1.00800           0
     17655 MEMB     112      SAPE     N        NH3L    -0.300000       14.0070           0
     17656 MEMB     112      SAPE     HN1      HCL      0.330000       1.00800           0
     17657 MEMB     112      SAPE     HN2      HCL      0.330000       1.00800           0
     17658 MEMB     112      SAPE     HN3      HCL      0.330000       1.00800           0
     17659 MEMB     112      SAPE     C12      CTL2     0.130000       12.0110           0
     17660 MEMB     112      SAPE     H12A     HAL2     0.900000E-01   1.00800           0
     17661 MEMB     112      SAPE     H12B     HAL2     0.900000E-01   1.00800           0
     17662 MEMB     112      SAPE     C11      CTL2    -0.800000E-01   12.0110           0
     17663 MEMB     112      SAPE     H11A     HAL2     0.900000E-01   1.00800           0
     17664 MEMB     112      SAPE     H11B     HAL2     0.900000E-01   1.00800           0
     17665 MEMB     112      SAPE     P        PL       1.500000       30.9740           0
     17666 MEMB     112      SAPE     O13      O2L     -0.780000       15.9994           0
     17667 MEMB     112      SAPE     O14      O2L     -0.780000       15.9994           0
     17668 MEMB     112      SAPE     O12      OSLP    -0.570000       15.9994           0
     17669 MEMB     112      SAPE     O11      OSLP    -0.570000       15.9994           0
     17670 MEMB     112      SAPE     C1       CTL2    -0.800000E-01   12.0110           0
     17671 MEMB     112      SAPE     HA       HAL2     0.900000E-01   1.00800           0
     17672 MEMB     112      SAPE     HB       HAL2     0.900000E-01   1.00800           0
     17673 MEMB     112      SAPE     C2       CTL1     0.170000       12.0110           0
     17674 MEMB     112      SAPE     HS       HAL1     0.900000E-01   1.00800           0
     17675 MEMB     112      SAPE     O21      OSL     -0.490000       15.9994           0
     17676 MEMB     112      SAPE     C21      CL       0.900000       12.0110           0
     17677 MEMB     112      SAPE     O22      OBL     -0.630000       15.9994           0
     17678 MEMB     112      SAPE     C22      CTL2    -0.220000       12.0110           0
     17679 MEMB     112      SAPE     H2R      HAL2     0.900000E-01   1.00800           0
     17680 MEMB     112      SAPE     H2S      HAL2     0.900000E-01   1.00800           0
     17681 MEMB     112      SAPE     C3       CTL2     0.800000E-01   12.0110           0
     17682 MEMB     112      SAPE     HX       HAL2     0.900000E-01   1.00800           0
     17683 MEMB     112      SAPE     HY       HAL2     0.900000E-01   1.00800           0
     17684 MEMB     112      SAPE     O31      OSL     -0.490000       15.9994           0
     17685 MEMB     112      SAPE     C31      CL       0.900000       12.0110           0
     17686 MEMB     112      SAPE     O32      OBL     -0.630000       15.9994           0
     17687 MEMB     112      SAPE     C32      CTL2    -0.220000       12.0110           0
     17688 MEMB     112      SAPE     H2X      HAL2     0.900000E-01   1.00800           0
     17689 MEMB     112      SAPE     H2Y      HAL2     0.900000E-01   1.00800           0
     17690 MEMB     112      SAPE     C23      CTL2    -0.180000       12.0110           0
     17691 MEMB     112      SAPE     H3R      HAL2     0.900000E-01   1.00800           0
     17692 MEMB     112      SAPE     H3S      HAL2     0.900000E-01   1.00800           0
     17693 MEMB     112      SAPE     C24      CTL2    -0.180000       12.0110           0
     17694 MEMB     112      SAPE     H4R      HAL2     0.900000E-01   1.00800           0
     17695 MEMB     112      SAPE     H4S      HAL2     0.900000E-01   1.00800           0
     17696 MEMB     112      SAPE     C25      CEL1    -0.150000       12.0110           0
     17697 MEMB     112      SAPE     H5R      HEL1     0.150000       1.00800           0
     17698 MEMB     112      SAPE     C26      CEL1    -0.150000       12.0110           0
     17699 MEMB     112      SAPE     H6R      HEL1     0.150000       1.00800           0
     17700 MEMB     112      SAPE     C27      CTL2    -0.180000       12.0110           0
     17701 MEMB     112      SAPE     H7R      HAL2     0.900000E-01   1.00800           0
     17702 MEMB     112      SAPE     H7S      HAL2     0.900000E-01   1.00800           0
     17703 MEMB     112      SAPE     C28      CEL1    -0.150000       12.0110           0
     17704 MEMB     112      SAPE     H8R      HEL1     0.150000       1.00800           0
     17705 MEMB     112      SAPE     C29      CEL1    -0.150000       12.0110           0
     17706 MEMB     112      SAPE     H9R      HEL1     0.150000       1.00800           0
     17707 MEMB     112      SAPE     C210     CTL2    -0.180000       12.0110           0
     17708 MEMB     112      SAPE     H10R     HAL2     0.900000E-01   1.00800           0
     17709 MEMB     112      SAPE     H10S     HAL2     0.900000E-01   1.00800           0
     17710 MEMB     112      SAPE     C211     CEL1    -0.150000       12.0110           0
     17711 MEMB     112      SAPE     H11R     HEL1     0.150000       1.00800           0
     17712 MEMB     112      SAPE     C212     CEL1    -0.150000       12.0110           0
     17713 MEMB     112      SAPE     H12R     HEL1     0.150000       1.00800           0
     17714 MEMB     112      SAPE     C213     CTL2    -0.180000       12.0110           0
     17715 MEMB     112      SAPE     H13R     HAL2     0.900000E-01   1.00800           0
     17716 MEMB     112      SAPE     H13S     HAL2     0.900000E-01   1.00800           0
     17717 MEMB     112      SAPE     C214     CEL1    -0.150000       12.0110           0
     17718 MEMB     112      SAPE     H14R     HEL1     0.150000       1.00800           0
     17719 MEMB     112      SAPE     C215     CEL1    -0.150000       12.0110           0
     17720 MEMB     112      SAPE     H15R     HEL1     0.150000       1.00800           0
     17721 MEMB     112      SAPE     C216     CTL2    -0.180000       12.0110           0
     17722 MEMB     112      SAPE     H16R     HAL2     0.900000E-01   1.00800           0
     17723 MEMB     112      SAPE     H16S     HAL2     0.900000E-01   1.00800           0
     17724 MEMB     112      SAPE     C217     CTL2    -0.180000       12.0110           0
     17725 MEMB     112      SAPE     H17R     HAL2     0.900000E-01   1.00800           0
     17726 MEMB     112      SAPE     H17S     HAL2     0.900000E-01   1.00800           0
     17727 MEMB     112      SAPE     C218     CTL2    -0.180000       12.0110           0
     17728 MEMB     112      SAPE     H18R     HAL2     0.900000E-01   1.00800           0
     17729 MEMB     112      SAPE     H18S     HAL2     0.900000E-01   1.00800           0
     17730 MEMB     112      SAPE     C219     CTL2    -0.180000       12.0110           0
     17731 MEMB     112      SAPE     H19R     HAL2     0.900000E-01   1.00800           0
     17732 MEMB     112      SAPE     H19S     HAL2     0.900000E-01   1.00800           0
     17733 MEMB     112      SAPE     C220     CTL3    -0.270000       12.0110           0
     17734 MEMB     112      SAPE     H20R     HAL3     0.900000E-01   1.00800           0
     17735 MEMB     112      SAPE     H20S     HAL3     0.900000E-01   1.00800           0
     17736 MEMB     112      SAPE     H20T     HAL3     0.900000E-01   1.00800           0
     17737 MEMB     112      SAPE     C33      CTL2    -0.180000       12.0110           0
     17738 MEMB     112      SAPE     H3X      HAL2     0.900000E-01   1.00800           0
     17739 MEMB     112      SAPE     H3Y      HAL2     0.900000E-01   1.00800           0
     17740 MEMB     112      SAPE     C34      CTL2    -0.180000       12.0110           0
     17741 MEMB     112      SAPE     H4X      HAL2     0.900000E-01   1.00800           0
     17742 MEMB     112      SAPE     H4Y      HAL2     0.900000E-01   1.00800           0
     17743 MEMB     112      SAPE     C35      CTL2    -0.180000       12.0110           0
     17744 MEMB     112      SAPE     H5X      HAL2     0.900000E-01   1.00800           0
     17745 MEMB     112      SAPE     H5Y      HAL2     0.900000E-01   1.00800           0
     17746 MEMB     112      SAPE     C36      CTL2    -0.180000       12.0110           0
     17747 MEMB     112      SAPE     H6X      HAL2     0.900000E-01   1.00800           0
     17748 MEMB     112      SAPE     H6Y      HAL2     0.900000E-01   1.00800           0
     17749 MEMB     112      SAPE     C37      CTL2    -0.180000       12.0110           0
     17750 MEMB     112      SAPE     H7X      HAL2     0.900000E-01   1.00800           0
     17751 MEMB     112      SAPE     H7Y      HAL2     0.900000E-01   1.00800           0
     17752 MEMB     112      SAPE     C38      CTL2    -0.180000       12.0110           0
     17753 MEMB     112      SAPE     H8X      HAL2     0.900000E-01   1.00800           0
     17754 MEMB     112      SAPE     H8Y      HAL2     0.900000E-01   1.00800           0
     17755 MEMB     112      SAPE     C39      CTL2    -0.180000       12.0110           0
     17756 MEMB     112      SAPE     H9X      HAL2     0.900000E-01   1.00800           0
     17757 MEMB     112      SAPE     H9Y      HAL2     0.900000E-01   1.00800           0
     17758 MEMB     112      SAPE     C310     CTL2    -0.180000       12.0110           0
     17759 MEMB     112      SAPE     H10X     HAL2     0.900000E-01   1.00800           0
     17760 MEMB     112      SAPE     H10Y     HAL2     0.900000E-01   1.00800           0
     17761 MEMB     112      SAPE     C311     CTL2    -0.180000       12.0110           0
     17762 MEMB     112      SAPE     H11X     HAL2     0.900000E-01   1.00800           0
     17763 MEMB     112      SAPE     H11Y     HAL2     0.900000E-01   1.00800           0
     17764 MEMB     112      SAPE     C312     CTL2    -0.180000       12.0110           0
     17765 MEMB     112      SAPE     H12X     HAL2     0.900000E-01   1.00800           0
     17766 MEMB     112      SAPE     H12Y     HAL2     0.900000E-01   1.00800           0
     17767 MEMB     112      SAPE     C313     CTL2    -0.180000       12.0110           0
     17768 MEMB     112      SAPE     H13X     HAL2     0.900000E-01   1.00800           0
     17769 MEMB     112      SAPE     H13Y     HAL2     0.900000E-01   1.00800           0
     17770 MEMB     112      SAPE     C314     CTL2    -0.180000       12.0110           0
     17771 MEMB     112      SAPE     H14X     HAL2     0.900000E-01   1.00800           0
     17772 MEMB     112      SAPE     H14Y     HAL2     0.900000E-01   1.00800           0
     17773 MEMB     112      SAPE     C315     CTL2    -0.180000       12.0110           0
     17774 MEMB     112      SAPE     H15X     HAL2     0.900000E-01   1.00800           0
     17775 MEMB     112      SAPE     H15Y     HAL2     0.900000E-01   1.00800           0
     17776 MEMB     112      SAPE     C316     CTL2    -0.180000       12.0110           0
     17777 MEMB     112      SAPE     H16X     HAL2     0.900000E-01   1.00800           0
     17778 MEMB     112      SAPE     H16Y     HAL2     0.900000E-01   1.00800           0
     17779 MEMB     112      SAPE     C317     CTL2    -0.180000       12.0110           0
     17780 MEMB     112      SAPE     H17X     HAL2     0.900000E-01   1.00800           0
     17781 MEMB     112      SAPE     H17Y     HAL2     0.900000E-01   1.00800           0
     17782 MEMB     112      SAPE     C318     CTL3    -0.270000       12.0110           0
     17783 MEMB     112      SAPE     H18X     HAL3     0.900000E-01   1.00800           0
     17784 MEMB     112      SAPE     H18Y     HAL3     0.900000E-01   1.00800           0
     17785 MEMB     112      SAPE     H18Z     HAL3     0.900000E-01   1.00800           0
     17786 MEMB     123      SAPE     N        NH3L    -0.300000       14.0070           0
     17787 MEMB     123      SAPE     HN1      HCL      0.330000       1.00800           0
     17788 MEMB     123      SAPE     HN2      HCL      0.330000       1.00800           0
     17789 MEMB     123      SAPE     HN3      HCL      0.330000       1.00800           0
     17790 MEMB     123      SAPE     C12      CTL2     0.130000       12.0110           0
     17791 MEMB     123      SAPE     H12A     HAL2     0.900000E-01   1.00800           0
     17792 MEMB     123      SAPE     H12B     HAL2     0.900000E-01   1.00800           0
     17793 MEMB     123      SAPE     C11      CTL2    -0.800000E-01   12.0110           0
     17794 MEMB     123      SAPE     H11A     HAL2     0.900000E-01   1.00800           0
     17795 MEMB     123      SAPE     H11B     HAL2     0.900000E-01   1.00800           0
     17796 MEMB     123      SAPE     P        PL       1.500000       30.9740           0
     17797 MEMB     123      SAPE     O13      O2L     -0.780000       15.9994           0
     17798 MEMB     123      SAPE     O14      O2L     -0.780000       15.9994           0
     17799 MEMB     123      SAPE     O12      OSLP    -0.570000       15.9994           0
     17800 MEMB     123      SAPE     O11      OSLP    -0.570000       15.9994           0
     17801 MEMB     123      SAPE     C1       CTL2    -0.800000E-01   12.0110           0
     17802 MEMB     123      SAPE     HA       HAL2     0.900000E-01   1.00800           0
     17803 MEMB     123      SAPE     HB       HAL2     0.900000E-01   1.00800           0
     17804 MEMB     123      SAPE     C2       CTL1     0.170000       12.0110           0
     17805 MEMB     123      SAPE     HS       HAL1     0.900000E-01   1.00800           0
     17806 MEMB     123      SAPE     O21      OSL     -0.490000       15.9994           0
     17807 MEMB     123      SAPE     C21      CL       0.900000       12.0110           0
     17808 MEMB     123      SAPE     O22      OBL     -0.630000       15.9994           0
     17809 MEMB     123      SAPE     C22      CTL2    -0.220000       12.0110           0
     17810 MEMB     123      SAPE     H2R      HAL2     0.900000E-01   1.00800           0
     17811 MEMB     123      SAPE     H2S      HAL2     0.900000E-01   1.00800           0
     17812 MEMB     123      SAPE     C3       CTL2     0.800000E-01   12.0110           0
     17813 MEMB     123      SAPE     HX       HAL2     0.900000E-01   1.00800           0
     17814 MEMB     123      SAPE     HY       HAL2     0.900000E-01   1.00800           0
     17815 MEMB     123      SAPE     O31      OSL     -0.490000       15.9994           0
     17816 MEMB     123      SAPE     C31      CL       0.900000       12.0110           0
     17817 MEMB     123      SAPE     O32      OBL     -0.630000       15.9994           0
     17818 MEMB     123      SAPE     C32      CTL2    -0.220000       12.0110           0
     17819 MEMB     123      SAPE     H2X      HAL2     0.900000E-01   1.00800           0
     17820 MEMB     123      SAPE     H2Y      HAL2     0.900000E-01   1.00800           0
     17821 MEMB     123      SAPE     C23      CTL2    -0.180000       12.0110           0
     17822 MEMB     123      SAPE     H3R      HAL2     0.900000E-01   1.00800           0
     17823 MEMB     123      SAPE     H3S      HAL2     0.900000E-01   1.00800           0
     17824 MEMB     123      SAPE     C24      CTL2    -0.180000       12.0110           0
     17825 MEMB     123      SAPE     H4R      HAL2     0.900000E-01   1.00800           0
     17826 MEMB     123      SAPE     H4S      HAL2     0.900000E-01   1.00800           0
     17827 MEMB     123      SAPE     C25      CEL1    -0.150000       12.0110           0
     17828 MEMB     123      SAPE     H5R      HEL1     0.150000       1.00800           0
     17829 MEMB     123      SAPE     C26      CEL1    -0.150000       12.0110           0
     17830 MEMB     123      SAPE     H6R      HEL1     0.150000       1.00800           0
     17831 MEMB     123      SAPE     C27      CTL2    -0.180000       12.0110           0
     17832 MEMB     123      SAPE     H7R      HAL2     0.900000E-01   1.00800           0
     17833 MEMB     123      SAPE     H7S      HAL2     0.900000E-01   1.00800           0
     17834 MEMB     123      SAPE     C28      CEL1    -0.150000       12.0110           0
     17835 MEMB     123      SAPE     H8R      HEL1     0.150000       1.00800           0
     17836 MEMB     123      SAPE     C29      CEL1    -0.150000       12.0110           0
     17837 MEMB     123      SAPE     H9R      HEL1     0.150000       1.00800           0
     17838 MEMB     123      SAPE     C210     CTL2    -0.180000       12.0110           0
     17839 MEMB     123      SAPE     H10R     HAL2     0.900000E-01   1.00800           0
     17840 MEMB     123      SAPE     H10S     HAL2     0.900000E-01   1.00800           0
     17841 MEMB     123      SAPE     C211     CEL1    -0.150000       12.0110           0
     17842 MEMB     123      SAPE     H11R     HEL1     0.150000       1.00800           0
     17843 MEMB     123      SAPE     C212     CEL1    -0.150000       12.0110           0
     17844 MEMB     123      SAPE     H12R     HEL1     0.150000       1.00800           0
     17845 MEMB     123      SAPE     C213     CTL2    -0.180000       12.0110           0
     17846 MEMB     123      SAPE     H13R     HAL2     0.900000E-01   1.00800           0
     17847 MEMB     123      SAPE     H13S     HAL2     0.900000E-01   1.00800           0
     17848 MEMB     123      SAPE     C214     CEL1    -0.150000       12.0110           0
     17849 MEMB     123      SAPE     H14R     HEL1     0.150000       1.00800           0
     17850 MEMB     123      SAPE     C215     CEL1    -0.150000       12.0110           0
     17851 MEMB     123      SAPE     H15R     HEL1     0.150000       1.00800           0
     17852 MEMB     123      SAPE     C216     CTL2    -0.180000       12.0110           0
     17853 MEMB     123      SAPE     H16R     HAL2     0.900000E-01   1.00800           0
     17854 MEMB     123      SAPE     H16S     HAL2     0.900000E-01   1.00800           0
     17855 MEMB     123      SAPE     C217     CTL2    -0.180000       12.0110           0
     17856 MEMB     123      SAPE     H17R     HAL2     0.900000E-01   1.00800           0
     17857 MEMB     123      SAPE     H17S     HAL2     0.900000E-01   1.00800           0
     17858 MEMB     123      SAPE     C218     CTL2    -0.180000       12.0110           0
     17859 MEMB     123      SAPE     H18R     HAL2     0.900000E-01   1.00800           0
     17860 MEMB     123      SAPE     H18S     HAL2     0.900000E-01   1.00800           0
     17861 MEMB     123      SAPE     C219     CTL2    -0.180000       12.0110           0
     17862 MEMB     123      SAPE     H19R     HAL2     0.900000E-01   1.00800           0
     17863 MEMB     123      SAPE     H19S     HAL2     0.900000E-01   1.00800           0
     17864 MEMB     123      SAPE     C220     CTL3    -0.270000       12.0110           0
     17865 MEMB     123      SAPE     H20R     HAL3     0.900000E-01   1.00800           0
     17866 MEMB     123      SAPE     H20S     HAL3     0.900000E-01   1.00800           0
     17867 MEMB     123      SAPE     H20T     HAL3     0.900000E-01   1.00800           0
     17868 MEMB     123      SAPE     C33      CTL2    -0.180000       12.0110           0
     17869 MEMB     123      SAPE     H3X      HAL2     0.900000E-01   1.00800           0
     17870 MEMB     123      SAPE     H3Y      HAL2     0.900000E-01   1.00800           0
     17871 MEMB     123      SAPE     C34      CTL2    -0.180000       12.0110           0
     17872 MEMB     123      SAPE     H4X      HAL2     0.900000E-01   1.00800           0
     17873 MEMB     123      SAPE     H4Y      HAL2     0.900000E-01   1.00800           0
     17874 MEMB     123      SAPE     C35      CTL2    -0.180000       12.0110           0
     17875 MEMB     123      SAPE     H5X      HAL2     0.900000E-01   1.00800           0
     17876 MEMB     123      SAPE     H5Y      HAL2     0.900000E-01   1.00800           0
     17877 MEMB     123      SAPE     C36      CTL2    -0.180000       12.0110           0
     17878 MEMB     123      SAPE     H6X      HAL2     0.900000E-01   1.00800           0
     17879 MEMB     123      SAPE     H6Y      HAL2     0.900000E-01   1.00800           0
     17880 MEMB     123      SAPE     C37      CTL2    -0.180000       12.0110           0
     17881 MEMB     123      SAPE     H7X      HAL2     0.900000E-01   1.00800           0
     17882 MEMB     123      SAPE     H7Y      HAL2     0.900000E-01   1.00800           0
     17883 MEMB     123      SAPE     C38      CTL2    -0.180000       12.0110           0
     17884 MEMB     123      SAPE     H8X      HAL2     0.900000E-01   1.00800           0
     17885 MEMB     123      SAPE     H8Y      HAL2     0.900000E-01   1.00800           0
     17886 MEMB     123      SAPE     C39      CTL2    -0.180000       12.0110           0
     17887 MEMB     123      SAPE     H9X      HAL2     0.900000E-01   1.00800           0
     17888 MEMB     123      SAPE     H9Y      HAL2     0.900000E-01   1.00800           0
     17889 MEMB     123      SAPE     C310     CTL2    -0.180000       12.0110           0
     17890 MEMB     123      SAPE     H10X     HAL2     0.900000E-01   1.00800           0
     17891 MEMB     123      SAPE     H10Y     HAL2     0.900000E-01   1.00800           0
     17892 MEMB     123      SAPE     C311     CTL2    -0.180000       12.0110           0
     17893 MEMB     123      SAPE     H11X     HAL2     0.900000E-01   1.00800           0
     17894 MEMB     123      SAPE     H11Y     HAL2     0.900000E-01   1.00800           0
     17895 MEMB     123      SAPE     C312     CTL2    -0.180000       12.0110           0
     17896 MEMB     123      SAPE     H12X     HAL2     0.900000E-01   1.00800           0
     17897 MEMB     123      SAPE     H12Y     HAL2     0.900000E-01   1.00800           0
     17898 MEMB     123      SAPE     C313     CTL2    -0.180000       12.0110           0
     17899 MEMB     123      SAPE     H13X     HAL2     0.900000E-01   1.00800           0
     17900 MEMB     123      SAPE     H13Y     HAL2     0.900000E-01   1.00800           0
     17901 MEMB     123      SAPE     C314     CTL2    -0.180000       12.0110           0
     17902 MEMB     123      SAPE     H14X     HAL2     0.900000E-01   1.00800           0
     17903 MEMB     123      SAPE     H14Y     HAL2     0.900000E-01   1.00800           0
     17904 MEMB     123      SAPE     C315     CTL2    -0.180000       12.0110           0
     17905 MEMB     123      SAPE     H15X     HAL2     0.900000E-01   1.00800           0
     17906 MEMB     123      SAPE     H15Y     HAL2     0.900000E-01   1.00800           0
     17907 MEMB     123      SAPE     C316     CTL2    -0.180000       12.0110           0
     17908 MEMB     123      SAPE     H16X     HAL2     0.900000E-01   1.00800           0
     17909 MEMB     123      SAPE     H16Y     HAL2     0.900000E-01   1.00800           0
     17910 MEMB     123      SAPE     C317     CTL2    -0.180000       12.0110           0
     17911 MEMB     123      SAPE     H17X     HAL2     0.900000E-01   1.00800           0
     17912 MEMB     123      SAPE     H17Y     HAL2     0.900000E-01   1.00800           0
     17913 MEMB     123      SAPE     C318     CTL3    -0.270000       12.0110           0
     17914 MEMB     123      SAPE     H18X     HAL3     0.900000E-01   1.00800           0
     17915 MEMB     123      SAPE     H18Y     HAL3     0.900000E-01   1.00800           0
     17916 MEMB     123      SAPE     H18Z     HAL3     0.900000E-01   1.00800           0
     17917 MEMB     131      SAPE     N        NH3L    -0.300000       14.0070           0
     17918 MEMB     131      SAPE     HN1      HCL      0.330000       1.00800           0
     17919 MEMB     131      SAPE     HN2      HCL      0.330000       1.00800           0
     17920 MEMB     131      SAPE     HN3      HCL      0.330000       1.00800           0
     17921 MEMB     131      SAPE     C12      CTL2     0.130000       12.0110           0
     17922 MEMB     131      SAPE     H12A     HAL2     0.900000E-01   1.00800           0
     17923 MEMB     131      SAPE     H12B     HAL2     0.900000E-01   1.00800           0
     17924 MEMB     131      SAPE     C11      CTL2    -0.800000E-01   12.0110           0
     17925 MEMB     131      SAPE     H11A     HAL2     0.900000E-01   1.00800           0
     17926 MEMB     131      SAPE     H11B     HAL2     0.900000E-01   1.00800           0
     17927 MEMB     131      SAPE     P        PL       1.500000       30.9740           0
     17928 MEMB     131      SAPE     O13      O2L     -0.780000       15.9994           0
     17929 MEMB     131      SAPE     O14      O2L     -0.780000       15.9994           0
     17930 MEMB     131      SAPE     O12      OSLP    -0.570000       15.9994           0
     17931 MEMB     131      SAPE     O11      OSLP    -0.570000       15.9994           0
     17932 MEMB     131      SAPE     C1       CTL2    -0.800000E-01   12.0110           0
     17933 MEMB     131      SAPE     HA       HAL2     0.900000E-01   1.00800           0
     17934 MEMB     131      SAPE     HB       HAL2     0.900000E-01   1.00800           0
     17935 MEMB     131      SAPE     C2       CTL1     0.170000       12.0110           0
     17936 MEMB     131      SAPE     HS       HAL1     0.900000E-01   1.00800           0
     17937 MEMB     131      SAPE     O21      OSL     -0.490000       15.9994           0
     17938 MEMB     131      SAPE     C21      CL       0.900000       12.0110           0
     17939 MEMB     131      SAPE     O22      OBL     -0.630000       15.9994           0
     17940 MEMB     131      SAPE     C22      CTL2    -0.220000       12.0110           0
     17941 MEMB     131      SAPE     H2R      HAL2     0.900000E-01   1.00800           0
     17942 MEMB     131      SAPE     H2S      HAL2     0.900000E-01   1.00800           0
     17943 MEMB     131      SAPE     C3       CTL2     0.800000E-01   12.0110           0
     17944 MEMB     131      SAPE     HX       HAL2     0.900000E-01   1.00800           0
     17945 MEMB     131      SAPE     HY       HAL2     0.900000E-01   1.00800           0
     17946 MEMB     131      SAPE     O31      OSL     -0.490000       15.9994           0
     17947 MEMB     131      SAPE     C31      CL       0.900000       12.0110           0
     17948 MEMB     131      SAPE     O32      OBL     -0.630000       15.9994           0
     17949 MEMB     131      SAPE     C32      CTL2    -0.220000       12.0110           0
     17950 MEMB     131      SAPE     H2X      HAL2     0.900000E-01   1.00800           0
     17951 MEMB     131      SAPE     H2Y      HAL2     0.900000E-01   1.00800           0
     17952 MEMB     131      SAPE     C23      CTL2    -0.180000       12.0110           0
     17953 MEMB     131      SAPE     H3R      HAL2     0.900000E-01   1.00800           0
     17954 MEMB     131      SAPE     H3S      HAL2     0.900000E-01   1.00800           0
     17955 MEMB     131      SAPE     C24      CTL2    -0.180000       12.0110           0
     17956 MEMB     131      SAPE     H4R      HAL2     0.900000E-01   1.00800           0
     17957 MEMB     131      SAPE     H4S      HAL2     0.900000E-01   1.00800           0
     17958 MEMB     131      SAPE     C25      CEL1    -0.150000       12.0110           0
     17959 MEMB     131      SAPE     H5R      HEL1     0.150000       1.00800           0
     17960 MEMB     131      SAPE     C26      CEL1    -0.150000       12.0110           0
     17961 MEMB     131      SAPE     H6R      HEL1     0.150000       1.00800           0
     17962 MEMB     131      SAPE     C27      CTL2    -0.180000       12.0110           0
     17963 MEMB     131      SAPE     H7R      HAL2     0.900000E-01   1.00800           0
     17964 MEMB     131      SAPE     H7S      HAL2     0.900000E-01   1.00800           0
     17965 MEMB     131      SAPE     C28      CEL1    -0.150000       12.0110           0
     17966 MEMB     131      SAPE     H8R      HEL1     0.150000       1.00800           0
     17967 MEMB     131      SAPE     C29      CEL1    -0.150000       12.0110           0
     17968 MEMB     131      SAPE     H9R      HEL1     0.150000       1.00800           0
     17969 MEMB     131      SAPE     C210     CTL2    -0.180000       12.0110           0
     17970 MEMB     131      SAPE     H10R     HAL2     0.900000E-01   1.00800           0
     17971 MEMB     131      SAPE     H10S     HAL2     0.900000E-01   1.00800           0
     17972 MEMB     131      SAPE     C211     CEL1    -0.150000       12.0110           0
     17973 MEMB     131      SAPE     H11R     HEL1     0.150000       1.00800           0
     17974 MEMB     131      SAPE     C212     CEL1    -0.150000       12.0110           0
     17975 MEMB     131      SAPE     H12R     HEL1     0.150000       1.00800           0
     17976 MEMB     131      SAPE     C213     CTL2    -0.180000       12.0110           0
     17977 MEMB     131      SAPE     H13R     HAL2     0.900000E-01   1.00800           0
     17978 MEMB     131      SAPE     H13S     HAL2     0.900000E-01   1.00800           0
     17979 MEMB     131      SAPE     C214     CEL1    -0.150000       12.0110           0
     17980 MEMB     131      SAPE     H14R     HEL1     0.150000       1.00800           0
     17981 MEMB     131      SAPE     C215     CEL1    -0.150000       12.0110           0
     17982 MEMB     131      SAPE     H15R     HEL1     0.150000       1.00800           0
     17983 MEMB     131      SAPE     C216     CTL2    -0.180000       12.0110           0
     17984 MEMB     131      SAPE     H16R     HAL2     0.900000E-01   1.00800           0
     17985 MEMB     131      SAPE     H16S     HAL2     0.900000E-01   1.00800           0
     17986 MEMB     131      SAPE     C217     CTL2    -0.180000       12.0110           0
     17987 MEMB     131      SAPE     H17R     HAL2     0.900000E-01   1.00800           0
     17988 MEMB     131      SAPE     H17S     HAL2     0.900000E-01   1.00800           0
     17989 MEMB     131      SAPE     C218     CTL2    -0.180000       12.0110           0
     17990 MEMB     131      SAPE     H18R     HAL2     0.900000E-01   1.00800           0
     17991 MEMB     131      SAPE     H18S     HAL2     0.900000E-01   1.00800           0
     17992 MEMB     131      SAPE     C219     CTL2    -0.180000       12.0110           0
     17993 MEMB     131      SAPE     H19R     HAL2     0.900000E-01   1.00800           0
     17994 MEMB     131      SAPE     H19S     HAL2     0.900000E-01   1.00800           0
     17995 MEMB     131      SAPE     C220     CTL3    -0.270000       12.0110           0
     17996 MEMB     131      SAPE     H20R     HAL3     0.900000E-01   1.00800           0
     17997 MEMB     131      SAPE     H20S     HAL3     0.900000E-01   1.00800           0
     17998 MEMB     131      SAPE     H20T     HAL3     0.900000E-01   1.00800           0
     17999 MEMB     131      SAPE     C33      CTL2    -0.180000       12.0110           0
     18000 MEMB     131      SAPE     H3X      HAL2     0.900000E-01   1.00800           0
     18001 MEMB     131      SAPE     H3Y      HAL2     0.900000E-01   1.00800           0
     18002 MEMB     131      SAPE     C34      CTL2    -0.180000       12.0110           0
     18003 MEMB     131      SAPE     H4X      HAL2     0.900000E-01   1.00800           0
     18004 MEMB     131      SAPE     H4Y      HAL2     0.900000E-01   1.00800           0
     18005 MEMB     131      SAPE     C35      CTL2    -0.180000       12.0110           0
     18006 MEMB     131      SAPE     H5X      HAL2     0.900000E-01   1.00800           0
     18007 MEMB     131      SAPE     H5Y      HAL2     0.900000E-01   1.00800           0
     18008 MEMB     131      SAPE     C36      CTL2    -0.180000       12.0110           0
     18009 MEMB     131      SAPE     H6X      HAL2     0.900000E-01   1.00800           0
     18010 MEMB     131      SAPE     H6Y      HAL2     0.900000E-01   1.00800           0
     18011 MEMB     131      SAPE     C37      CTL2    -0.180000       12.0110           0
     18012 MEMB     131      SAPE     H7X      HAL2     0.900000E-01   1.00800           0
     18013 MEMB     131      SAPE     H7Y      HAL2     0.900000E-01   1.00800           0
     18014 MEMB     131      SAPE     C38      CTL2    -0.180000       12.0110           0
     18015 MEMB     131      SAPE     H8X      HAL2     0.900000E-01   1.00800           0
     18016 MEMB     131      SAPE     H8Y      HAL2     0.900000E-01   1.00800           0
     18017 MEMB     131      SAPE     C39      CTL2    -0.180000       12.0110           0
     18018 MEMB     131      SAPE     H9X      HAL2     0.900000E-01   1.00800           0
     18019 MEMB     131      SAPE     H9Y      HAL2     0.900000E-01   1.00800           0
     18020 MEMB     131      SAPE     C310     CTL2    -0.180000       12.0110           0
     18021 MEMB     131      SAPE     H10X     HAL2     0.900000E-01   1.00800           0
     18022 MEMB     131      SAPE     H10Y     HAL2     0.900000E-01   1.00800           0
     18023 MEMB     131      SAPE     C311     CTL2    -0.180000       12.0110           0
     18024 MEMB     131      SAPE     H11X     HAL2     0.900000E-01   1.00800           0
     18025 MEMB     131      SAPE     H11Y     HAL2     0.900000E-01   1.00800           0
     18026 MEMB     131      SAPE     C312     CTL2    -0.180000       12.0110           0
     18027 MEMB     131      SAPE     H12X     HAL2     0.900000E-01   1.00800           0
     18028 MEMB     131      SAPE     H12Y     HAL2     0.900000E-01   1.00800           0
     18029 MEMB     131      SAPE     C313     CTL2    -0.180000       12.0110           0
     18030 MEMB     131      SAPE     H13X     HAL2     0.900000E-01   1.00800           0
     18031 MEMB     131      SAPE     H13Y     HAL2     0.900000E-01   1.00800           0
     18032 MEMB     131      SAPE     C314     CTL2    -0.180000       12.0110           0
     18033 MEMB     131      SAPE     H14X     HAL2     0.900000E-01   1.00800           0
     18034 MEMB     131      SAPE     H14Y     HAL2     0.900000E-01   1.00800           0
     18035 MEMB     131      SAPE     C315     CTL2    -0.180000       12.0110           0
     18036 MEMB     131      SAPE     H15X     HAL2     0.900000E-01   1.00800           0
     18037 MEMB     131      SAPE     H15Y     HAL2     0.900000E-01   1.00800           0
     18038 MEMB     131      SAPE     C316     CTL2    -0.180000       12.0110           0
     18039 MEMB     131      SAPE     H16X     HAL2     0.900000E-01   1.00800           0
     18040 MEMB     131      SAPE     H16Y     HAL2     0.900000E-01   1.00800           0
     18041 MEMB     131      SAPE     C317     CTL2    -0.180000       12.0110           0
     18042 MEMB     131      SAPE     H17X     HAL2     0.900000E-01   1.00800           0
     18043 MEMB     131      SAPE     H17Y     HAL2     0.900000E-01   1.00800           0
     18044 MEMB     131      SAPE     C318     CTL3    -0.270000       12.0110           0
     18045 MEMB     131      SAPE     H18X     HAL3     0.900000E-01   1.00800           0
     18046 MEMB     131      SAPE     H18Y     HAL3     0.900000E-01   1.00800           0
     18047 MEMB     131      SAPE     H18Z     HAL3     0.900000E-01   1.00800           0
     18048 MEMB     141      SAPE     N        NH3L    -0.300000       14.0070           0
     18049 MEMB     141      SAPE     HN1      HCL      0.330000       1.00800           0
     18050 MEMB     141      SAPE     HN2      HCL      0.330000       1.00800           0
     18051 MEMB     141      SAPE     HN3      HCL      0.330000       1.00800           0
     18052 MEMB     141      SAPE     C12      CTL2     0.130000       12.0110           0
     18053 MEMB     141      SAPE     H12A     HAL2     0.900000E-01   1.00800           0
     18054 MEMB     141      SAPE     H12B     HAL2     0.900000E-01   1.00800           0
     18055 MEMB     141      SAPE     C11      CTL2    -0.800000E-01   12.0110           0
     18056 MEMB     141      SAPE     H11A     HAL2     0.900000E-01   1.00800           0
     18057 MEMB     141      SAPE     H11B     HAL2     0.900000E-01   1.00800           0
     18058 MEMB     141      SAPE     P        PL       1.500000       30.9740           0
     18059 MEMB     141      SAPE     O13      O2L     -0.780000       15.9994           0
     18060 MEMB     141      SAPE     O14      O2L     -0.780000       15.9994           0
     18061 MEMB     141      SAPE     O12      OSLP    -0.570000       15.9994           0
     18062 MEMB     141      SAPE     O11      OSLP    -0.570000       15.9994           0
     18063 MEMB     141      SAPE     C1       CTL2    -0.800000E-01   12.0110           0
     18064 MEMB     141      SAPE     HA       HAL2     0.900000E-01   1.00800           0
     18065 MEMB     141      SAPE     HB       HAL2     0.900000E-01   1.00800           0
     18066 MEMB     141      SAPE     C2       CTL1     0.170000       12.0110           0
     18067 MEMB     141      SAPE     HS       HAL1     0.900000E-01   1.00800           0
     18068 MEMB     141      SAPE     O21      OSL     -0.490000       15.9994           0
     18069 MEMB     141      SAPE     C21      CL       0.900000       12.0110           0
     18070 MEMB     141      SAPE     O22      OBL     -0.630000       15.9994           0
     18071 MEMB     141      SAPE     C22      CTL2    -0.220000       12.0110           0
     18072 MEMB     141      SAPE     H2R      HAL2     0.900000E-01   1.00800           0
     18073 MEMB     141      SAPE     H2S      HAL2     0.900000E-01   1.00800           0
     18074 MEMB     141      SAPE     C3       CTL2     0.800000E-01   12.0110           0
     18075 MEMB     141      SAPE     HX       HAL2     0.900000E-01   1.00800           0
     18076 MEMB     141      SAPE     HY       HAL2     0.900000E-01   1.00800           0
     18077 MEMB     141      SAPE     O31      OSL     -0.490000       15.9994           0
     18078 MEMB     141      SAPE     C31      CL       0.900000       12.0110           0
     18079 MEMB     141      SAPE     O32      OBL     -0.630000       15.9994           0
     18080 MEMB     141      SAPE     C32      CTL2    -0.220000       12.0110           0
     18081 MEMB     141      SAPE     H2X      HAL2     0.900000E-01   1.00800           0
     18082 MEMB     141      SAPE     H2Y      HAL2     0.900000E-01   1.00800           0
     18083 MEMB     141      SAPE     C23      CTL2    -0.180000       12.0110           0
     18084 MEMB     141      SAPE     H3R      HAL2     0.900000E-01   1.00800           0
     18085 MEMB     141      SAPE     H3S      HAL2     0.900000E-01   1.00800           0
     18086 MEMB     141      SAPE     C24      CTL2    -0.180000       12.0110           0
     18087 MEMB     141      SAPE     H4R      HAL2     0.900000E-01   1.00800           0
     18088 MEMB     141      SAPE     H4S      HAL2     0.900000E-01   1.00800           0
     18089 MEMB     141      SAPE     C25      CEL1    -0.150000       12.0110           0
     18090 MEMB     141      SAPE     H5R      HEL1     0.150000       1.00800           0
     18091 MEMB     141      SAPE     C26      CEL1    -0.150000       12.0110           0
     18092 MEMB     141      SAPE     H6R      HEL1     0.150000       1.00800           0
     18093 MEMB     141      SAPE     C27      CTL2    -0.180000       12.0110           0
     18094 MEMB     141      SAPE     H7R      HAL2     0.900000E-01   1.00800           0
     18095 MEMB     141      SAPE     H7S      HAL2     0.900000E-01   1.00800           0
     18096 MEMB     141      SAPE     C28      CEL1    -0.150000       12.0110           0
     18097 MEMB     141      SAPE     H8R      HEL1     0.150000       1.00800           0
     18098 MEMB     141      SAPE     C29      CEL1    -0.150000       12.0110           0
     18099 MEMB     141      SAPE     H9R      HEL1     0.150000       1.00800           0
     18100 MEMB     141      SAPE     C210     CTL2    -0.180000       12.0110           0
     18101 MEMB     141      SAPE     H10R     HAL2     0.900000E-01   1.00800           0
     18102 MEMB     141      SAPE     H10S     HAL2     0.900000E-01   1.00800           0
     18103 MEMB     141      SAPE     C211     CEL1    -0.150000       12.0110           0
     18104 MEMB     141      SAPE     H11R     HEL1     0.150000       1.00800           0
     18105 MEMB     141      SAPE     C212     CEL1    -0.150000       12.0110           0
     18106 MEMB     141      SAPE     H12R     HEL1     0.150000       1.00800           0
     18107 MEMB     141      SAPE     C213     CTL2    -0.180000       12.0110           0
     18108 MEMB     141      SAPE     H13R     HAL2     0.900000E-01   1.00800           0
     18109 MEMB     141      SAPE     H13S     HAL2     0.900000E-01   1.00800           0
     18110 MEMB     141      SAPE     C214     CEL1    -0.150000       12.0110           0
     18111 MEMB     141      SAPE     H14R     HEL1     0.150000       1.00800           0
     18112 MEMB     141      SAPE     C215     CEL1    -0.150000       12.0110           0
     18113 MEMB     141      SAPE     H15R     HEL1     0.150000       1.00800           0
     18114 MEMB     141      SAPE     C216     CTL2    -0.180000       12.0110           0
     18115 MEMB     141      SAPE     H16R     HAL2     0.900000E-01   1.00800           0
     18116 MEMB     141      SAPE     H16S     HAL2     0.900000E-01   1.00800           0
     18117 MEMB     141      SAPE     C217     CTL2    -0.180000       12.0110           0
     18118 MEMB     141      SAPE     H17R     HAL2     0.900000E-01   1.00800           0
     18119 MEMB     141      SAPE     H17S     HAL2     0.900000E-01   1.00800           0
     18120 MEMB     141      SAPE     C218     CTL2    -0.180000       12.0110           0
     18121 MEMB     141      SAPE     H18R     HAL2     0.900000E-01   1.00800           0
     18122 MEMB     141      SAPE     H18S     HAL2     0.900000E-01   1.00800           0
     18123 MEMB     141      SAPE     C219     CTL2    -0.180000       12.0110           0
     18124 MEMB     141      SAPE     H19R     HAL2     0.900000E-01   1.00800           0
     18125 MEMB     141      SAPE     H19S     HAL2     0.900000E-01   1.00800           0
     18126 MEMB     141      SAPE     C220     CTL3    -0.270000       12.0110           0
     18127 MEMB     141      SAPE     H20R     HAL3     0.900000E-01   1.00800           0
     18128 MEMB     141      SAPE     H20S     HAL3     0.900000E-01   1.00800           0
     18129 MEMB     141      SAPE     H20T     HAL3     0.900000E-01   1.00800           0
     18130 MEMB     141      SAPE     C33      CTL2    -0.180000       12.0110           0
     18131 MEMB     141      SAPE     H3X      HAL2     0.900000E-01   1.00800           0
     18132 MEMB     141      SAPE     H3Y      HAL2     0.900000E-01   1.00800           0
     18133 MEMB     141      SAPE     C34      CTL2    -0.180000       12.0110           0
     18134 MEMB     141      SAPE     H4X      HAL2     0.900000E-01   1.00800           0
     18135 MEMB     141      SAPE     H4Y      HAL2     0.900000E-01   1.00800           0
     18136 MEMB     141      SAPE     C35      CTL2    -0.180000       12.0110           0
     18137 MEMB     141      SAPE     H5X      HAL2     0.900000E-01   1.00800           0
     18138 MEMB     141      SAPE     H5Y      HAL2     0.900000E-01   1.00800           0
     18139 MEMB     141      SAPE     C36      CTL2    -0.180000       12.0110           0
     18140 MEMB     141      SAPE     H6X      HAL2     0.900000E-01   1.00800           0
     18141 MEMB     141      SAPE     H6Y      HAL2     0.900000E-01   1.00800           0
     18142 MEMB     141      SAPE     C37      CTL2    -0.180000       12.0110           0
     18143 MEMB     141      SAPE     H7X      HAL2     0.900000E-01   1.00800           0
     18144 MEMB     141      SAPE     H7Y      HAL2     0.900000E-01   1.00800           0
     18145 MEMB     141      SAPE     C38      CTL2    -0.180000       12.0110           0
     18146 MEMB     141      SAPE     H8X      HAL2     0.900000E-01   1.00800           0
     18147 MEMB     141      SAPE     H8Y      HAL2     0.900000E-01   1.00800           0
     18148 MEMB     141      SAPE     C39      CTL2    -0.180000       12.0110           0
     18149 MEMB     141      SAPE     H9X      HAL2     0.900000E-01   1.00800           0
     18150 MEMB     141      SAPE     H9Y      HAL2     0.900000E-01   1.00800           0
     18151 MEMB     141      SAPE     C310     CTL2    -0.180000       12.0110           0
     18152 MEMB     141      SAPE     H10X     HAL2     0.900000E-01   1.00800           0
     18153 MEMB     141      SAPE     H10Y     HAL2     0.900000E-01   1.00800           0
     18154 MEMB     141      SAPE     C311     CTL2    -0.180000       12.0110           0
     18155 MEMB     141      SAPE     H11X     HAL2     0.900000E-01   1.00800           0
     18156 MEMB     141      SAPE     H11Y     HAL2     0.900000E-01   1.00800           0
     18157 MEMB     141      SAPE     C312     CTL2    -0.180000       12.0110           0
     18158 MEMB     141      SAPE     H12X     HAL2     0.900000E-01   1.00800           0
     18159 MEMB     141      SAPE     H12Y     HAL2     0.900000E-01   1.00800           0
     18160 MEMB     141      SAPE     C313     CTL2    -0.180000       12.0110           0
     18161 MEMB     141      SAPE     H13X     HAL2     0.900000E-01   1.00800           0
     18162 MEMB     141      SAPE     H13Y     HAL2     0.900000E-01   1.00800           0
     18163 MEMB     141      SAPE     C314     CTL2    -0.180000       12.0110           0
     18164 MEMB     141      SAPE     H14X     HAL2     0.900000E-01   1.00800           0
     18165 MEMB     141      SAPE     H14Y     HAL2     0.900000E-01   1.00800           0
     18166 MEMB     141      SAPE     C315     CTL2    -0.180000       12.0110           0
     18167 MEMB     141      SAPE     H15X     HAL2     0.900000E-01   1.00800           0
     18168 MEMB     141      SAPE     H15Y     HAL2     0.900000E-01   1.00800           0
     18169 MEMB     141      SAPE     C316     CTL2    -0.180000       12.0110           0
     18170 MEMB     141      SAPE     H16X     HAL2     0.900000E-01   1.00800           0
     18171 MEMB     141      SAPE     H16Y     HAL2     0.900000E-01   1.00800           0
     18172 MEMB     141      SAPE     C317     CTL2    -0.180000       12.0110           0
     18173 MEMB     141      SAPE     H17X     HAL2     0.900000E-01   1.00800           0
     18174 MEMB     141      SAPE     H17Y     HAL2     0.900000E-01   1.00800           0
     18175 MEMB     141      SAPE     C318     CTL3    -0.270000       12.0110           0
     18176 MEMB     141      SAPE     H18X     HAL3     0.900000E-01   1.00800           0
     18177 MEMB     141      SAPE     H18Y     HAL3     0.900000E-01   1.00800           0
     18178 MEMB     141      SAPE     H18Z     HAL3     0.900000E-01   1.00800           0
     18179 MEMB     148      SAPE     N        NH3L    -0.300000       14.0070           0
     18180 MEMB     148      SAPE     HN1      HCL      0.330000       1.00800           0
     18181 MEMB     148      SAPE     HN2      HCL      0.330000       1.00800           0
     18182 MEMB     148      SAPE     HN3      HCL      0.330000       1.00800           0
     18183 MEMB     148      SAPE     C12      CTL2     0.130000       12.0110           0
     18184 MEMB     148      SAPE     H12A     HAL2     0.900000E-01   1.00800           0
     18185 MEMB     148      SAPE     H12B     HAL2     0.900000E-01   1.00800           0
     18186 MEMB     148      SAPE     C11      CTL2    -0.800000E-01   12.0110           0
     18187 MEMB     148      SAPE     H11A     HAL2     0.900000E-01   1.00800           0
     18188 MEMB     148      SAPE     H11B     HAL2     0.900000E-01   1.00800           0
     18189 MEMB     148      SAPE     P        PL       1.500000       30.9740           0
     18190 MEMB     148      SAPE     O13      O2L     -0.780000       15.9994           0
     18191 MEMB     148      SAPE     O14      O2L     -0.780000       15.9994           0
     18192 MEMB     148      SAPE     O12      OSLP    -0.570000       15.9994           0
     18193 MEMB     148      SAPE     O11      OSLP    -0.570000       15.9994           0
     18194 MEMB     148      SAPE     C1       CTL2    -0.800000E-01   12.0110           0
     18195 MEMB     148      SAPE     HA       HAL2     0.900000E-01   1.00800           0
     18196 MEMB     148      SAPE     HB       HAL2     0.900000E-01   1.00800           0
     18197 MEMB     148      SAPE     C2       CTL1     0.170000       12.0110           0
     18198 MEMB     148      SAPE     HS       HAL1     0.900000E-01   1.00800           0
     18199 MEMB     148      SAPE     O21      OSL     -0.490000       15.9994           0
     18200 MEMB     148      SAPE     C21      CL       0.900000       12.0110           0
     18201 MEMB     148      SAPE     O22      OBL     -0.630000       15.9994           0
     18202 MEMB     148      SAPE     C22      CTL2    -0.220000       12.0110           0
     18203 MEMB     148      SAPE     H2R      HAL2     0.900000E-01   1.00800           0
     18204 MEMB     148      SAPE     H2S      HAL2     0.900000E-01   1.00800           0
     18205 MEMB     148      SAPE     C3       CTL2     0.800000E-01   12.0110           0
     18206 MEMB     148      SAPE     HX       HAL2     0.900000E-01   1.00800           0
     18207 MEMB     148      SAPE     HY       HAL2     0.900000E-01   1.00800           0
     18208 MEMB     148      SAPE     O31      OSL     -0.490000       15.9994           0
     18209 MEMB     148      SAPE     C31      CL       0.900000       12.0110           0
     18210 MEMB     148      SAPE     O32      OBL     -0.630000       15.9994           0
     18211 MEMB     148      SAPE     C32      CTL2    -0.220000       12.0110           0
     18212 MEMB     148      SAPE     H2X      HAL2     0.900000E-01   1.00800           0
     18213 MEMB     148      SAPE     H2Y      HAL2     0.900000E-01   1.00800           0
     18214 MEMB     148      SAPE     C23      CTL2    -0.180000       12.0110           0
     18215 MEMB     148      SAPE     H3R      HAL2     0.900000E-01   1.00800           0
     18216 MEMB     148      SAPE     H3S      HAL2     0.900000E-01   1.00800           0
     18217 MEMB     148      SAPE     C24      CTL2    -0.180000       12.0110           0
     18218 MEMB     148      SAPE     H4R      HAL2     0.900000E-01   1.00800           0
     18219 MEMB     148      SAPE     H4S      HAL2     0.900000E-01   1.00800           0
     18220 MEMB     148      SAPE     C25      CEL1    -0.150000       12.0110           0
     18221 MEMB     148      SAPE     H5R      HEL1     0.150000       1.00800           0
     18222 MEMB     148      SAPE     C26      CEL1    -0.150000       12.0110           0
     18223 MEMB     148      SAPE     H6R      HEL1     0.150000       1.00800           0
     18224 MEMB     148      SAPE     C27      CTL2    -0.180000       12.0110           0
     18225 MEMB     148      SAPE     H7R      HAL2     0.900000E-01   1.00800           0
     18226 MEMB     148      SAPE     H7S      HAL2     0.900000E-01   1.00800           0
     18227 MEMB     148      SAPE     C28      CEL1    -0.150000       12.0110           0
     18228 MEMB     148      SAPE     H8R      HEL1     0.150000       1.00800           0
     18229 MEMB     148      SAPE     C29      CEL1    -0.150000       12.0110           0
     18230 MEMB     148      SAPE     H9R      HEL1     0.150000       1.00800           0
     18231 MEMB     148      SAPE     C210     CTL2    -0.180000       12.0110           0
     18232 MEMB     148      SAPE     H10R     HAL2     0.900000E-01   1.00800           0
     18233 MEMB     148      SAPE     H10S     HAL2     0.900000E-01   1.00800           0
     18234 MEMB     148      SAPE     C211     CEL1    -0.150000       12.0110           0
     18235 MEMB     148      SAPE     H11R     HEL1     0.150000       1.00800           0
     18236 MEMB     148      SAPE     C212     CEL1    -0.150000       12.0110           0
     18237 MEMB     148      SAPE     H12R     HEL1     0.150000       1.00800           0
     18238 MEMB     148      SAPE     C213     CTL2    -0.180000       12.0110           0
     18239 MEMB     148      SAPE     H13R     HAL2     0.900000E-01   1.00800           0
     18240 MEMB     148      SAPE     H13S     HAL2     0.900000E-01   1.00800           0
     18241 MEMB     148      SAPE     C214     CEL1    -0.150000       12.0110           0
     18242 MEMB     148      SAPE     H14R     HEL1     0.150000       1.00800           0
     18243 MEMB     148      SAPE     C215     CEL1    -0.150000       12.0110           0
     18244 MEMB     148      SAPE     H15R     HEL1     0.150000       1.00800           0
     18245 MEMB     148      SAPE     C216     CTL2    -0.180000       12.0110           0
     18246 MEMB     148      SAPE     H16R     HAL2     0.900000E-01   1.00800           0
     18247 MEMB     148      SAPE     H16S     HAL2     0.900000E-01   1.00800           0
     18248 MEMB     148      SAPE     C217     CTL2    -0.180000       12.0110           0
     18249 MEMB     148      SAPE     H17R     HAL2     0.900000E-01   1.00800           0
     18250 MEMB     148      SAPE     H17S     HAL2     0.900000E-01   1.00800           0
     18251 MEMB     148      SAPE     C218     CTL2    -0.180000       12.0110           0
     18252 MEMB     148      SAPE     H18R     HAL2     0.900000E-01   1.00800           0
     18253 MEMB     148      SAPE     H18S     HAL2     0.900000E-01   1.00800           0
     18254 MEMB     148      SAPE     C219     CTL2    -0.180000       12.0110           0
     18255 MEMB     148      SAPE     H19R     HAL2     0.900000E-01   1.00800           0
     18256 MEMB     148      SAPE     H19S     HAL2     0.900000E-01   1.00800           0
     18257 MEMB     148      SAPE     C220     CTL3    -0.270000       12.0110           0
     18258 MEMB     148      SAPE     H20R     HAL3     0.900000E-01   1.00800           0
     18259 MEMB     148      SAPE     H20S     HAL3     0.900000E-01   1.00800           0
     18260 MEMB     148      SAPE     H20T     HAL3     0.900000E-01   1.00800           0
     18261 MEMB     148      SAPE     C33      CTL2    -0.180000       12.0110           0
     18262 MEMB     148      SAPE     H3X      HAL2     0.900000E-01   1.00800           0
     18263 MEMB     148      SAPE     H3Y      HAL2     0.900000E-01   1.00800           0
     18264 MEMB     148      SAPE     C34      CTL2    -0.180000       12.0110           0
     18265 MEMB     148      SAPE     H4X      HAL2     0.900000E-01   1.00800           0
     18266 MEMB     148      SAPE     H4Y      HAL2     0.900000E-01   1.00800           0
     18267 MEMB     148      SAPE     C35      CTL2    -0.180000       12.0110           0
     18268 MEMB     148      SAPE     H5X      HAL2     0.900000E-01   1.00800           0
     18269 MEMB     148      SAPE     H5Y      HAL2     0.900000E-01   1.00800           0
     18270 MEMB     148      SAPE     C36      CTL2    -0.180000       12.0110           0
     18271 MEMB     148      SAPE     H6X      HAL2     0.900000E-01   1.00800           0
     18272 MEMB     148      SAPE     H6Y      HAL2     0.900000E-01   1.00800           0
     18273 MEMB     148      SAPE     C37      CTL2    -0.180000       12.0110           0
     18274 MEMB     148      SAPE     H7X      HAL2     0.900000E-01   1.00800           0
     18275 MEMB     148      SAPE     H7Y      HAL2     0.900000E-01   1.00800           0
     18276 MEMB     148      SAPE     C38      CTL2    -0.180000       12.0110           0
     18277 MEMB     148      SAPE     H8X      HAL2     0.900000E-01   1.00800           0
     18278 MEMB     148      SAPE     H8Y      HAL2     0.900000E-01   1.00800           0
     18279 MEMB     148      SAPE     C39      CTL2    -0.180000       12.0110           0
     18280 MEMB     148      SAPE     H9X      HAL2     0.900000E-01   1.00800           0
     18281 MEMB     148      SAPE     H9Y      HAL2     0.900000E-01   1.00800           0
     18282 MEMB     148      SAPE     C310     CTL2    -0.180000       12.0110           0
     18283 MEMB     148      SAPE     H10X     HAL2     0.900000E-01   1.00800           0
     18284 MEMB     148      SAPE     H10Y     HAL2     0.900000E-01   1.00800           0
     18285 MEMB     148      SAPE     C311     CTL2    -0.180000       12.0110           0
     18286 MEMB     148      SAPE     H11X     HAL2     0.900000E-01   1.00800           0
     18287 MEMB     148      SAPE     H11Y     HAL2     0.900000E-01   1.00800           0
     18288 MEMB     148      SAPE     C312     CTL2    -0.180000       12.0110           0
     18289 MEMB     148      SAPE     H12X     HAL2     0.900000E-01   1.00800           0
     18290 MEMB     148      SAPE     H12Y     HAL2     0.900000E-01   1.00800           0
     18291 MEMB     148      SAPE     C313     CTL2    -0.180000       12.0110           0
     18292 MEMB     148      SAPE     H13X     HAL2     0.900000E-01   1.00800           0
     18293 MEMB     148      SAPE     H13Y     HAL2     0.900000E-01   1.00800           0
     18294 MEMB     148      SAPE     C314     CTL2    -0.180000       12.0110           0
     18295 MEMB     148      SAPE     H14X     HAL2     0.900000E-01   1.00800           0
     18296 MEMB     148      SAPE     H14Y     HAL2     0.900000E-01   1.00800           0
     18297 MEMB     148      SAPE     C315     CTL2    -0.180000       12.0110           0
     18298 MEMB     148      SAPE     H15X     HAL2     0.900000E-01   1.00800           0
     18299 MEMB     148      SAPE     H15Y     HAL2     0.900000E-01   1.00800           0
     18300 MEMB     148      SAPE     C316     CTL2    -0.180000       12.0110           0
     18301 MEMB     148      SAPE     H16X     HAL2     0.900000E-01   1.00800           0
     18302 MEMB     148      SAPE     H16Y     HAL2     0.900000E-01   1.00800           0
     18303 MEMB     148      SAPE     C317     CTL2    -0.180000       12.0110           0
     18304 MEMB     148      SAPE     H17X     HAL2     0.900000E-01   1.00800           0
     18305 MEMB     148      SAPE     H17Y     HAL2     0.900000E-01   1.00800           0
     18306 MEMB     148      SAPE     C318     CTL3    -0.270000       12.0110           0
     18307 MEMB     148      SAPE     H18X     HAL3     0.900000E-01   1.00800           0
     18308 MEMB     148      SAPE     H18Y     HAL3     0.900000E-01   1.00800           0
     18309 MEMB     148      SAPE     H18Z     HAL3     0.900000E-01   1.00800           0
     18310 MEMB     152      SAPE     N        NH3L    -0.300000       14.0070           0
     18311 MEMB     152      SAPE     HN1      HCL      0.330000       1.00800           0
     18312 MEMB     152      SAPE     HN2      HCL      0.330000       1.00800           0
     18313 MEMB     152      SAPE     HN3      HCL      0.330000       1.00800           0
     18314 MEMB     152      SAPE     C12      CTL2     0.130000       12.0110           0
     18315 MEMB     152      SAPE     H12A     HAL2     0.900000E-01   1.00800           0
     18316 MEMB     152      SAPE     H12B     HAL2     0.900000E-01   1.00800           0
     18317 MEMB     152      SAPE     C11      CTL2    -0.800000E-01   12.0110           0
     18318 MEMB     152      SAPE     H11A     HAL2     0.900000E-01   1.00800           0
     18319 MEMB     152      SAPE     H11B     HAL2     0.900000E-01   1.00800           0
     18320 MEMB     152      SAPE     P        PL       1.500000       30.9740           0
     18321 MEMB     152      SAPE     O13      O2L     -0.780000       15.9994           0
     18322 MEMB     152      SAPE     O14      O2L     -0.780000       15.9994           0
     18323 MEMB     152      SAPE     O12      OSLP    -0.570000       15.9994           0
     18324 MEMB     152      SAPE     O11      OSLP    -0.570000       15.9994           0
     18325 MEMB     152      SAPE     C1       CTL2    -0.800000E-01   12.0110           0
     18326 MEMB     152      SAPE     HA       HAL2     0.900000E-01   1.00800           0
     18327 MEMB     152      SAPE     HB       HAL2     0.900000E-01   1.00800           0
     18328 MEMB     152      SAPE     C2       CTL1     0.170000       12.0110           0
     18329 MEMB     152      SAPE     HS       HAL1     0.900000E-01   1.00800           0
     18330 MEMB     152      SAPE     O21      OSL     -0.490000       15.9994           0
     18331 MEMB     152      SAPE     C21      CL       0.900000       12.0110           0
     18332 MEMB     152      SAPE     O22      OBL     -0.630000       15.9994           0
     18333 MEMB     152      SAPE     C22      CTL2    -0.220000       12.0110           0
     18334 MEMB     152      SAPE     H2R      HAL2     0.900000E-01   1.00800           0
     18335 MEMB     152      SAPE     H2S      HAL2     0.900000E-01   1.00800           0
     18336 MEMB     152      SAPE     C3       CTL2     0.800000E-01   12.0110           0
     18337 MEMB     152      SAPE     HX       HAL2     0.900000E-01   1.00800           0
     18338 MEMB     152      SAPE     HY       HAL2     0.900000E-01   1.00800           0
     18339 MEMB     152      SAPE     O31      OSL     -0.490000       15.9994           0
     18340 MEMB     152      SAPE     C31      CL       0.900000       12.0110           0
     18341 MEMB     152      SAPE     O32      OBL     -0.630000       15.9994           0
     18342 MEMB     152      SAPE     C32      CTL2    -0.220000       12.0110           0
     18343 MEMB     152      SAPE     H2X      HAL2     0.900000E-01   1.00800           0
     18344 MEMB     152      SAPE     H2Y      HAL2     0.900000E-01   1.00800           0
     18345 MEMB     152      SAPE     C23      CTL2    -0.180000       12.0110           0
     18346 MEMB     152      SAPE     H3R      HAL2     0.900000E-01   1.00800           0
     18347 MEMB     152      SAPE     H3S      HAL2     0.900000E-01   1.00800           0
     18348 MEMB     152      SAPE     C24      CTL2    -0.180000       12.0110           0
     18349 MEMB     152      SAPE     H4R      HAL2     0.900000E-01   1.00800           0
     18350 MEMB     152      SAPE     H4S      HAL2     0.900000E-01   1.00800           0
     18351 MEMB     152      SAPE     C25      CEL1    -0.150000       12.0110           0
     18352 MEMB     152      SAPE     H5R      HEL1     0.150000       1.00800           0
     18353 MEMB     152      SAPE     C26      CEL1    -0.150000       12.0110           0
     18354 MEMB     152      SAPE     H6R      HEL1     0.150000       1.00800           0
     18355 MEMB     152      SAPE     C27      CTL2    -0.180000       12.0110           0
     18356 MEMB     152      SAPE     H7R      HAL2     0.900000E-01   1.00800           0
     18357 MEMB     152      SAPE     H7S      HAL2     0.900000E-01   1.00800           0
     18358 MEMB     152      SAPE     C28      CEL1    -0.150000       12.0110           0
     18359 MEMB     152      SAPE     H8R      HEL1     0.150000       1.00800           0
     18360 MEMB     152      SAPE     C29      CEL1    -0.150000       12.0110           0
     18361 MEMB     152      SAPE     H9R      HEL1     0.150000       1.00800           0
     18362 MEMB     152      SAPE     C210     CTL2    -0.180000       12.0110           0
     18363 MEMB     152      SAPE     H10R     HAL2     0.900000E-01   1.00800           0
     18364 MEMB     152      SAPE     H10S     HAL2     0.900000E-01   1.00800           0
     18365 MEMB     152      SAPE     C211     CEL1    -0.150000       12.0110           0
     18366 MEMB     152      SAPE     H11R     HEL1     0.150000       1.00800           0
     18367 MEMB     152      SAPE     C212     CEL1    -0.150000       12.0110           0
     18368 MEMB     152      SAPE     H12R     HEL1     0.150000       1.00800           0
     18369 MEMB     152      SAPE     C213     CTL2    -0.180000       12.0110           0
     18370 MEMB     152      SAPE     H13R     HAL2     0.900000E-01   1.00800           0
     18371 MEMB     152      SAPE     H13S     HAL2     0.900000E-01   1.00800           0
     18372 MEMB     152      SAPE     C214     CEL1    -0.150000       12.0110           0
     18373 MEMB     152      SAPE     H14R     HEL1     0.150000       1.00800           0
     18374 MEMB     152      SAPE     C215     CEL1    -0.150000       12.0110           0
     18375 MEMB     152      SAPE     H15R     HEL1     0.150000       1.00800           0
     18376 MEMB     152      SAPE     C216     CTL2    -0.180000       12.0110           0
     18377 MEMB     152      SAPE     H16R     HAL2     0.900000E-01   1.00800           0
     18378 MEMB     152      SAPE     H16S     HAL2     0.900000E-01   1.00800           0
     18379 MEMB     152      SAPE     C217     CTL2    -0.180000       12.0110           0
     18380 MEMB     152      SAPE     H17R     HAL2     0.900000E-01   1.00800           0
     18381 MEMB     152      SAPE     H17S     HAL2     0.900000E-01   1.00800           0
     18382 MEMB     152      SAPE     C218     CTL2    -0.180000       12.0110           0
     18383 MEMB     152      SAPE     H18R     HAL2     0.900000E-01   1.00800           0
     18384 MEMB     152      SAPE     H18S     HAL2     0.900000E-01   1.00800           0
     18385 MEMB     152      SAPE     C219     CTL2    -0.180000       12.0110           0
     18386 MEMB     152      SAPE     H19R     HAL2     0.900000E-01   1.00800           0
     18387 MEMB     152      SAPE     H19S     HAL2     0.900000E-01   1.00800           0
     18388 MEMB     152      SAPE     C220     CTL3    -0.270000       12.0110           0
     18389 MEMB     152      SAPE     H20R     HAL3     0.900000E-01   1.00800           0
     18390 MEMB     152      SAPE     H20S     HAL3     0.900000E-01   1.00800           0
     18391 MEMB     152      SAPE     H20T     HAL3     0.900000E-01   1.00800           0
     18392 MEMB     152      SAPE     C33      CTL2    -0.180000       12.0110           0
     18393 MEMB     152      SAPE     H3X      HAL2     0.900000E-01   1.00800           0
     18394 MEMB     152      SAPE     H3Y      HAL2     0.900000E-01   1.00800           0
     18395 MEMB     152      SAPE     C34      CTL2    -0.180000       12.0110           0
     18396 MEMB     152      SAPE     H4X      HAL2     0.900000E-01   1.00800           0
     18397 MEMB     152      SAPE     H4Y      HAL2     0.900000E-01   1.00800           0
     18398 MEMB     152      SAPE     C35      CTL2    -0.180000       12.0110           0
     18399 MEMB     152      SAPE     H5X      HAL2     0.900000E-01   1.00800           0
     18400 MEMB     152      SAPE     H5Y      HAL2     0.900000E-01   1.00800           0
     18401 MEMB     152      SAPE     C36      CTL2    -0.180000       12.0110           0
     18402 MEMB     152      SAPE     H6X      HAL2     0.900000E-01   1.00800           0
     18403 MEMB     152      SAPE     H6Y      HAL2     0.900000E-01   1.00800           0
     18404 MEMB     152      SAPE     C37      CTL2    -0.180000       12.0110           0
     18405 MEMB     152      SAPE     H7X      HAL2     0.900000E-01   1.00800           0
     18406 MEMB     152      SAPE     H7Y      HAL2     0.900000E-01   1.00800           0
     18407 MEMB     152      SAPE     C38      CTL2    -0.180000       12.0110           0
     18408 MEMB     152      SAPE     H8X      HAL2     0.900000E-01   1.00800           0
     18409 MEMB     152      SAPE     H8Y      HAL2     0.900000E-01   1.00800           0
     18410 MEMB     152      SAPE     C39      CTL2    -0.180000       12.0110           0
     18411 MEMB     152      SAPE     H9X      HAL2     0.900000E-01   1.00800           0
     18412 MEMB     152      SAPE     H9Y      HAL2     0.900000E-01   1.00800           0
     18413 MEMB     152      SAPE     C310     CTL2    -0.180000       12.0110           0
     18414 MEMB     152      SAPE     H10X     HAL2     0.900000E-01   1.00800           0
     18415 MEMB     152      SAPE     H10Y     HAL2     0.900000E-01   1.00800           0
     18416 MEMB     152      SAPE     C311     CTL2    -0.180000       12.0110           0
     18417 MEMB     152      SAPE     H11X     HAL2     0.900000E-01   1.00800           0
     18418 MEMB     152      SAPE     H11Y     HAL2     0.900000E-01   1.00800           0
     18419 MEMB     152      SAPE     C312     CTL2    -0.180000       12.0110           0
     18420 MEMB     152      SAPE     H12X     HAL2     0.900000E-01   1.00800           0
     18421 MEMB     152      SAPE     H12Y     HAL2     0.900000E-01   1.00800           0
     18422 MEMB     152      SAPE     C313     CTL2    -0.180000       12.0110           0
     18423 MEMB     152      SAPE     H13X     HAL2     0.900000E-01   1.00800           0
     18424 MEMB     152      SAPE     H13Y     HAL2     0.900000E-01   1.00800           0
     18425 MEMB     152      SAPE     C314     CTL2    -0.180000       12.0110           0
     18426 MEMB     152      SAPE     H14X     HAL2     0.900000E-01   1.00800           0
     18427 MEMB     152      SAPE     H14Y     HAL2     0.900000E-01   1.00800           0
     18428 MEMB     152      SAPE     C315     CTL2    -0.180000       12.0110           0
     18429 MEMB     152      SAPE     H15X     HAL2     0.900000E-01   1.00800           0
     18430 MEMB     152      SAPE     H15Y     HAL2     0.900000E-01   1.00800           0
     18431 MEMB     152      SAPE     C316     CTL2    -0.180000       12.0110           0
     18432 MEMB     152      SAPE     H16X     HAL2     0.900000E-01   1.00800           0
     18433 MEMB     152      SAPE     H16Y     HAL2     0.900000E-01   1.00800           0
     18434 MEMB     152      SAPE     C317     CTL2    -0.180000       12.0110           0
     18435 MEMB     152      SAPE     H17X     HAL2     0.900000E-01   1.00800           0
     18436 MEMB     152      SAPE     H17Y     HAL2     0.900000E-01   1.00800           0
     18437 MEMB     152      SAPE     C318     CTL3    -0.270000       12.0110           0
     18438 MEMB     152      SAPE     H18X     HAL3     0.900000E-01   1.00800           0
     18439 MEMB     152      SAPE     H18Y     HAL3     0.900000E-01   1.00800           0
     18440 MEMB     152      SAPE     H18Z     HAL3     0.900000E-01   1.00800           0
     18441 MEMB     156      SAPE     N        NH3L    -0.300000       14.0070           0
     18442 MEMB     156      SAPE     HN1      HCL      0.330000       1.00800           0
     18443 MEMB     156      SAPE     HN2      HCL      0.330000       1.00800           0
     18444 MEMB     156      SAPE     HN3      HCL      0.330000       1.00800           0
     18445 MEMB     156      SAPE     C12      CTL2     0.130000       12.0110           0
     18446 MEMB     156      SAPE     H12A     HAL2     0.900000E-01   1.00800           0
     18447 MEMB     156      SAPE     H12B     HAL2     0.900000E-01   1.00800           0
     18448 MEMB     156      SAPE     C11      CTL2    -0.800000E-01   12.0110           0
     18449 MEMB     156      SAPE     H11A     HAL2     0.900000E-01   1.00800           0
     18450 MEMB     156      SAPE     H11B     HAL2     0.900000E-01   1.00800           0
     18451 MEMB     156      SAPE     P        PL       1.500000       30.9740           0
     18452 MEMB     156      SAPE     O13      O2L     -0.780000       15.9994           0
     18453 MEMB     156      SAPE     O14      O2L     -0.780000       15.9994           0
     18454 MEMB     156      SAPE     O12      OSLP    -0.570000       15.9994           0
     18455 MEMB     156      SAPE     O11      OSLP    -0.570000       15.9994           0
     18456 MEMB     156      SAPE     C1       CTL2    -0.800000E-01   12.0110           0
     18457 MEMB     156      SAPE     HA       HAL2     0.900000E-01   1.00800           0
     18458 MEMB     156      SAPE     HB       HAL2     0.900000E-01   1.00800           0
     18459 MEMB     156      SAPE     C2       CTL1     0.170000       12.0110           0
     18460 MEMB     156      SAPE     HS       HAL1     0.900000E-01   1.00800           0
     18461 MEMB     156      SAPE     O21      OSL     -0.490000       15.9994           0
     18462 MEMB     156      SAPE     C21      CL       0.900000       12.0110           0
     18463 MEMB     156      SAPE     O22      OBL     -0.630000       15.9994           0
     18464 MEMB     156      SAPE     C22      CTL2    -0.220000       12.0110           0
     18465 MEMB     156      SAPE     H2R      HAL2     0.900000E-01   1.00800           0
     18466 MEMB     156      SAPE     H2S      HAL2     0.900000E-01   1.00800           0
     18467 MEMB     156      SAPE     C3       CTL2     0.800000E-01   12.0110           0
     18468 MEMB     156      SAPE     HX       HAL2     0.900000E-01   1.00800           0
     18469 MEMB     156      SAPE     HY       HAL2     0.900000E-01   1.00800           0
     18470 MEMB     156      SAPE     O31      OSL     -0.490000       15.9994           0
     18471 MEMB     156      SAPE     C31      CL       0.900000       12.0110           0
     18472 MEMB     156      SAPE     O32      OBL     -0.630000       15.9994           0
     18473 MEMB     156      SAPE     C32      CTL2    -0.220000       12.0110           0
     18474 MEMB     156      SAPE     H2X      HAL2     0.900000E-01   1.00800           0
     18475 MEMB     156      SAPE     H2Y      HAL2     0.900000E-01   1.00800           0
     18476 MEMB     156      SAPE     C23      CTL2    -0.180000       12.0110           0
     18477 MEMB     156      SAPE     H3R      HAL2     0.900000E-01   1.00800           0
     18478 MEMB     156      SAPE     H3S      HAL2     0.900000E-01   1.00800           0
     18479 MEMB     156      SAPE     C24      CTL2    -0.180000       12.0110           0
     18480 MEMB     156      SAPE     H4R      HAL2     0.900000E-01   1.00800           0
     18481 MEMB     156      SAPE     H4S      HAL2     0.900000E-01   1.00800           0
     18482 MEMB     156      SAPE     C25      CEL1    -0.150000       12.0110           0
     18483 MEMB     156      SAPE     H5R      HEL1     0.150000       1.00800           0
     18484 MEMB     156      SAPE     C26      CEL1    -0.150000       12.0110           0
     18485 MEMB     156      SAPE     H6R      HEL1     0.150000       1.00800           0
     18486 MEMB     156      SAPE     C27      CTL2    -0.180000       12.0110           0
     18487 MEMB     156      SAPE     H7R      HAL2     0.900000E-01   1.00800           0
     18488 MEMB     156      SAPE     H7S      HAL2     0.900000E-01   1.00800           0
     18489 MEMB     156      SAPE     C28      CEL1    -0.150000       12.0110           0
     18490 MEMB     156      SAPE     H8R      HEL1     0.150000       1.00800           0
     18491 MEMB     156      SAPE     C29      CEL1    -0.150000       12.0110           0
     18492 MEMB     156      SAPE     H9R      HEL1     0.150000       1.00800           0
     18493 MEMB     156      SAPE     C210     CTL2    -0.180000       12.0110           0
     18494 MEMB     156      SAPE     H10R     HAL2     0.900000E-01   1.00800           0
     18495 MEMB     156      SAPE     H10S     HAL2     0.900000E-01   1.00800           0
     18496 MEMB     156      SAPE     C211     CEL1    -0.150000       12.0110           0
     18497 MEMB     156      SAPE     H11R     HEL1     0.150000       1.00800           0
     18498 MEMB     156      SAPE     C212     CEL1    -0.150000       12.0110           0
     18499 MEMB     156      SAPE     H12R     HEL1     0.150000       1.00800           0
     18500 MEMB     156      SAPE     C213     CTL2    -0.180000       12.0110           0
     18501 MEMB     156      SAPE     H13R     HAL2     0.900000E-01   1.00800           0
     18502 MEMB     156      SAPE     H13S     HAL2     0.900000E-01   1.00800           0
     18503 MEMB     156      SAPE     C214     CEL1    -0.150000       12.0110           0
     18504 MEMB     156      SAPE     H14R     HEL1     0.150000       1.00800           0
     18505 MEMB     156      SAPE     C215     CEL1    -0.150000       12.0110           0
     18506 MEMB     156      SAPE     H15R     HEL1     0.150000       1.00800           0
     18507 MEMB     156      SAPE     C216     CTL2    -0.180000       12.0110           0
     18508 MEMB     156      SAPE     H16R     HAL2     0.900000E-01   1.00800           0
     18509 MEMB     156      SAPE     H16S     HAL2     0.900000E-01   1.00800           0
     18510 MEMB     156      SAPE     C217     CTL2    -0.180000       12.0110           0
     18511 MEMB     156      SAPE     H17R     HAL2     0.900000E-01   1.00800           0
     18512 MEMB     156      SAPE     H17S     HAL2     0.900000E-01   1.00800           0
     18513 MEMB     156      SAPE     C218     CTL2    -0.180000       12.0110           0
     18514 MEMB     156      SAPE     H18R     HAL2     0.900000E-01   1.00800           0
     18515 MEMB     156      SAPE     H18S     HAL2     0.900000E-01   1.00800           0
     18516 MEMB     156      SAPE     C219     CTL2    -0.180000       12.0110           0
     18517 MEMB     156      SAPE     H19R     HAL2     0.900000E-01   1.00800           0
     18518 MEMB     156      SAPE     H19S     HAL2     0.900000E-01   1.00800           0
     18519 MEMB     156      SAPE     C220     CTL3    -0.270000       12.0110           0
     18520 MEMB     156      SAPE     H20R     HAL3     0.900000E-01   1.00800           0
     18521 MEMB     156      SAPE     H20S     HAL3     0.900000E-01   1.00800           0
     18522 MEMB     156      SAPE     H20T     HAL3     0.900000E-01   1.00800           0
     18523 MEMB     156      SAPE     C33      CTL2    -0.180000       12.0110           0
     18524 MEMB     156      SAPE     H3X      HAL2     0.900000E-01   1.00800           0
     18525 MEMB     156      SAPE     H3Y      HAL2     0.900000E-01   1.00800           0
     18526 MEMB     156      SAPE     C34      CTL2    -0.180000       12.0110           0
     18527 MEMB     156      SAPE     H4X      HAL2     0.900000E-01   1.00800           0
     18528 MEMB     156      SAPE     H4Y      HAL2     0.900000E-01   1.00800           0
     18529 MEMB     156      SAPE     C35      CTL2    -0.180000       12.0110           0
     18530 MEMB     156      SAPE     H5X      HAL2     0.900000E-01   1.00800           0
     18531 MEMB     156      SAPE     H5Y      HAL2     0.900000E-01   1.00800           0
     18532 MEMB     156      SAPE     C36      CTL2    -0.180000       12.0110           0
     18533 MEMB     156      SAPE     H6X      HAL2     0.900000E-01   1.00800           0
     18534 MEMB     156      SAPE     H6Y      HAL2     0.900000E-01   1.00800           0
     18535 MEMB     156      SAPE     C37      CTL2    -0.180000       12.0110           0
     18536 MEMB     156      SAPE     H7X      HAL2     0.900000E-01   1.00800           0
     18537 MEMB     156      SAPE     H7Y      HAL2     0.900000E-01   1.00800           0
     18538 MEMB     156      SAPE     C38      CTL2    -0.180000       12.0110           0
     18539 MEMB     156      SAPE     H8X      HAL2     0.900000E-01   1.00800           0
     18540 MEMB     156      SAPE     H8Y      HAL2     0.900000E-01   1.00800           0
     18541 MEMB     156      SAPE     C39      CTL2    -0.180000       12.0110           0
     18542 MEMB     156      SAPE     H9X      HAL2     0.900000E-01   1.00800           0
     18543 MEMB     156      SAPE     H9Y      HAL2     0.900000E-01   1.00800           0
     18544 MEMB     156      SAPE     C310     CTL2    -0.180000       12.0110           0
     18545 MEMB     156      SAPE     H10X     HAL2     0.900000E-01   1.00800           0
     18546 MEMB     156      SAPE     H10Y     HAL2     0.900000E-01   1.00800           0
     18547 MEMB     156      SAPE     C311     CTL2    -0.180000       12.0110           0
     18548 MEMB     156      SAPE     H11X     HAL2     0.900000E-01   1.00800           0
     18549 MEMB     156      SAPE     H11Y     HAL2     0.900000E-01   1.00800           0
     18550 MEMB     156      SAPE     C312     CTL2    -0.180000       12.0110           0
     18551 MEMB     156      SAPE     H12X     HAL2     0.900000E-01   1.00800           0
     18552 MEMB     156      SAPE     H12Y     HAL2     0.900000E-01   1.00800           0
     18553 MEMB     156      SAPE     C313     CTL2    -0.180000       12.0110           0
     18554 MEMB     156      SAPE     H13X     HAL2     0.900000E-01   1.00800           0
     18555 MEMB     156      SAPE     H13Y     HAL2     0.900000E-01   1.00800           0
     18556 MEMB     156      SAPE     C314     CTL2    -0.180000       12.0110           0
     18557 MEMB     156      SAPE     H14X     HAL2     0.900000E-01   1.00800           0
     18558 MEMB     156      SAPE     H14Y     HAL2     0.900000E-01   1.00800           0
     18559 MEMB     156      SAPE     C315     CTL2    -0.180000       12.0110           0
     18560 MEMB     156      SAPE     H15X     HAL2     0.900000E-01   1.00800           0
     18561 MEMB     156      SAPE     H15Y     HAL2     0.900000E-01   1.00800           0
     18562 MEMB     156      SAPE     C316     CTL2    -0.180000       12.0110           0
     18563 MEMB     156      SAPE     H16X     HAL2     0.900000E-01   1.00800           0
     18564 MEMB     156      SAPE     H16Y     HAL2     0.900000E-01   1.00800           0
     18565 MEMB     156      SAPE     C317     CTL2    -0.180000       12.0110           0
     18566 MEMB     156      SAPE     H17X     HAL2     0.900000E-01   1.00800           0
     18567 MEMB     156      SAPE     H17Y     HAL2     0.900000E-01   1.00800           0
     18568 MEMB     156      SAPE     C318     CTL3    -0.270000       12.0110           0
     18569 MEMB     156      SAPE     H18X     HAL3     0.900000E-01   1.00800           0
     18570 MEMB     156      SAPE     H18Y     HAL3     0.900000E-01   1.00800           0
     18571 MEMB     156      SAPE     H18Z     HAL3     0.900000E-01   1.00800           0
     18572 MEMB     157      SAPE     N        NH3L    -0.300000       14.0070           0
     18573 MEMB     157      SAPE     HN1      HCL      0.330000       1.00800           0
     18574 MEMB     157      SAPE     HN2      HCL      0.330000       1.00800           0
     18575 MEMB     157      SAPE     HN3      HCL      0.330000       1.00800           0
     18576 MEMB     157      SAPE     C12      CTL2     0.130000       12.0110           0
     18577 MEMB     157      SAPE     H12A     HAL2     0.900000E-01   1.00800           0
     18578 MEMB     157      SAPE     H12B     HAL2     0.900000E-01   1.00800           0
     18579 MEMB     157      SAPE     C11      CTL2    -0.800000E-01   12.0110           0
     18580 MEMB     157      SAPE     H11A     HAL2     0.900000E-01   1.00800           0
     18581 MEMB     157      SAPE     H11B     HAL2     0.900000E-01   1.00800           0
     18582 MEMB     157      SAPE     P        PL       1.500000       30.9740           0
     18583 MEMB     157      SAPE     O13      O2L     -0.780000       15.9994           0
     18584 MEMB     157      SAPE     O14      O2L     -0.780000       15.9994           0
     18585 MEMB     157      SAPE     O12      OSLP    -0.570000       15.9994           0
     18586 MEMB     157      SAPE     O11      OSLP    -0.570000       15.9994           0
     18587 MEMB     157      SAPE     C1       CTL2    -0.800000E-01   12.0110           0
     18588 MEMB     157      SAPE     HA       HAL2     0.900000E-01   1.00800           0
     18589 MEMB     157      SAPE     HB       HAL2     0.900000E-01   1.00800           0
     18590 MEMB     157      SAPE     C2       CTL1     0.170000       12.0110           0
     18591 MEMB     157      SAPE     HS       HAL1     0.900000E-01   1.00800           0
     18592 MEMB     157      SAPE     O21      OSL     -0.490000       15.9994           0
     18593 MEMB     157      SAPE     C21      CL       0.900000       12.0110           0
     18594 MEMB     157      SAPE     O22      OBL     -0.630000       15.9994           0
     18595 MEMB     157      SAPE     C22      CTL2    -0.220000       12.0110           0
     18596 MEMB     157      SAPE     H2R      HAL2     0.900000E-01   1.00800           0
     18597 MEMB     157      SAPE     H2S      HAL2     0.900000E-01   1.00800           0
     18598 MEMB     157      SAPE     C3       CTL2     0.800000E-01   12.0110           0
     18599 MEMB     157      SAPE     HX       HAL2     0.900000E-01   1.00800           0
     18600 MEMB     157      SAPE     HY       HAL2     0.900000E-01   1.00800           0
     18601 MEMB     157      SAPE     O31      OSL     -0.490000       15.9994           0
     18602 MEMB     157      SAPE     C31      CL       0.900000       12.0110           0
     18603 MEMB     157      SAPE     O32      OBL     -0.630000       15.9994           0
     18604 MEMB     157      SAPE     C32      CTL2    -0.220000       12.0110           0
     18605 MEMB     157      SAPE     H2X      HAL2     0.900000E-01   1.00800           0
     18606 MEMB     157      SAPE     H2Y      HAL2     0.900000E-01   1.00800           0
     18607 MEMB     157      SAPE     C23      CTL2    -0.180000       12.0110           0
     18608 MEMB     157      SAPE     H3R      HAL2     0.900000E-01   1.00800           0
     18609 MEMB     157      SAPE     H3S      HAL2     0.900000E-01   1.00800           0
     18610 MEMB     157      SAPE     C24      CTL2    -0.180000       12.0110           0
     18611 MEMB     157      SAPE     H4R      HAL2     0.900000E-01   1.00800           0
     18612 MEMB     157      SAPE     H4S      HAL2     0.900000E-01   1.00800           0
     18613 MEMB     157      SAPE     C25      CEL1    -0.150000       12.0110           0
     18614 MEMB     157      SAPE     H5R      HEL1     0.150000       1.00800           0
     18615 MEMB     157      SAPE     C26      CEL1    -0.150000       12.0110           0
     18616 MEMB     157      SAPE     H6R      HEL1     0.150000       1.00800           0
     18617 MEMB     157      SAPE     C27      CTL2    -0.180000       12.0110           0
     18618 MEMB     157      SAPE     H7R      HAL2     0.900000E-01   1.00800           0
     18619 MEMB     157      SAPE     H7S      HAL2     0.900000E-01   1.00800           0
     18620 MEMB     157      SAPE     C28      CEL1    -0.150000       12.0110           0
     18621 MEMB     157      SAPE     H8R      HEL1     0.150000       1.00800           0
     18622 MEMB     157      SAPE     C29      CEL1    -0.150000       12.0110           0
     18623 MEMB     157      SAPE     H9R      HEL1     0.150000       1.00800           0
     18624 MEMB     157      SAPE     C210     CTL2    -0.180000       12.0110           0
     18625 MEMB     157      SAPE     H10R     HAL2     0.900000E-01   1.00800           0
     18626 MEMB     157      SAPE     H10S     HAL2     0.900000E-01   1.00800           0
     18627 MEMB     157      SAPE     C211     CEL1    -0.150000       12.0110           0
     18628 MEMB     157      SAPE     H11R     HEL1     0.150000       1.00800           0
     18629 MEMB     157      SAPE     C212     CEL1    -0.150000       12.0110           0
     18630 MEMB     157      SAPE     H12R     HEL1     0.150000       1.00800           0
     18631 MEMB     157      SAPE     C213     CTL2    -0.180000       12.0110           0
     18632 MEMB     157      SAPE     H13R     HAL2     0.900000E-01   1.00800           0
     18633 MEMB     157      SAPE     H13S     HAL2     0.900000E-01   1.00800           0
     18634 MEMB     157      SAPE     C214     CEL1    -0.150000       12.0110           0
     18635 MEMB     157      SAPE     H14R     HEL1     0.150000       1.00800           0
     18636 MEMB     157      SAPE     C215     CEL1    -0.150000       12.0110           0
     18637 MEMB     157      SAPE     H15R     HEL1     0.150000       1.00800           0
     18638 MEMB     157      SAPE     C216     CTL2    -0.180000       12.0110           0
     18639 MEMB     157      SAPE     H16R     HAL2     0.900000E-01   1.00800           0
     18640 MEMB     157      SAPE     H16S     HAL2     0.900000E-01   1.00800           0
     18641 MEMB     157      SAPE     C217     CTL2    -0.180000       12.0110           0
     18642 MEMB     157      SAPE     H17R     HAL2     0.900000E-01   1.00800           0
     18643 MEMB     157      SAPE     H17S     HAL2     0.900000E-01   1.00800           0
     18644 MEMB     157      SAPE     C218     CTL2    -0.180000       12.0110           0
     18645 MEMB     157      SAPE     H18R     HAL2     0.900000E-01   1.00800           0
     18646 MEMB     157      SAPE     H18S     HAL2     0.900000E-01   1.00800           0
     18647 MEMB     157      SAPE     C219     CTL2    -0.180000       12.0110           0
     18648 MEMB     157      SAPE     H19R     HAL2     0.900000E-01   1.00800           0
     18649 MEMB     157      SAPE     H19S     HAL2     0.900000E-01   1.00800           0
     18650 MEMB     157      SAPE     C220     CTL3    -0.270000       12.0110           0
     18651 MEMB     157      SAPE     H20R     HAL3     0.900000E-01   1.00800           0
     18652 MEMB     157      SAPE     H20S     HAL3     0.900000E-01   1.00800           0
     18653 MEMB     157      SAPE     H20T     HAL3     0.900000E-01   1.00800           0
     18654 MEMB     157      SAPE     C33      CTL2    -0.180000       12.0110           0
     18655 MEMB     157      SAPE     H3X      HAL2     0.900000E-01   1.00800           0
     18656 MEMB     157      SAPE     H3Y      HAL2     0.900000E-01   1.00800           0
     18657 MEMB     157      SAPE     C34      CTL2    -0.180000       12.0110           0
     18658 MEMB     157      SAPE     H4X      HAL2     0.900000E-01   1.00800           0
     18659 MEMB     157      SAPE     H4Y      HAL2     0.900000E-01   1.00800           0
     18660 MEMB     157      SAPE     C35      CTL2    -0.180000       12.0110           0
     18661 MEMB     157      SAPE     H5X      HAL2     0.900000E-01   1.00800           0
     18662 MEMB     157      SAPE     H5Y      HAL2     0.900000E-01   1.00800           0
     18663 MEMB     157      SAPE     C36      CTL2    -0.180000       12.0110           0
     18664 MEMB     157      SAPE     H6X      HAL2     0.900000E-01   1.00800           0
     18665 MEMB     157      SAPE     H6Y      HAL2     0.900000E-01   1.00800           0
     18666 MEMB     157      SAPE     C37      CTL2    -0.180000       12.0110           0
     18667 MEMB     157      SAPE     H7X      HAL2     0.900000E-01   1.00800           0
     18668 MEMB     157      SAPE     H7Y      HAL2     0.900000E-01   1.00800           0
     18669 MEMB     157      SAPE     C38      CTL2    -0.180000       12.0110           0
     18670 MEMB     157      SAPE     H8X      HAL2     0.900000E-01   1.00800           0
     18671 MEMB     157      SAPE     H8Y      HAL2     0.900000E-01   1.00800           0
     18672 MEMB     157      SAPE     C39      CTL2    -0.180000       12.0110           0
     18673 MEMB     157      SAPE     H9X      HAL2     0.900000E-01   1.00800           0
     18674 MEMB     157      SAPE     H9Y      HAL2     0.900000E-01   1.00800           0
     18675 MEMB     157      SAPE     C310     CTL2    -0.180000       12.0110           0
     18676 MEMB     157      SAPE     H10X     HAL2     0.900000E-01   1.00800           0
     18677 MEMB     157      SAPE     H10Y     HAL2     0.900000E-01   1.00800           0
     18678 MEMB     157      SAPE     C311     CTL2    -0.180000       12.0110           0
     18679 MEMB     157      SAPE     H11X     HAL2     0.900000E-01   1.00800           0
     18680 MEMB     157      SAPE     H11Y     HAL2     0.900000E-01   1.00800           0
     18681 MEMB     157      SAPE     C312     CTL2    -0.180000       12.0110           0
     18682 MEMB     157      SAPE     H12X     HAL2     0.900000E-01   1.00800           0
     18683 MEMB     157      SAPE     H12Y     HAL2     0.900000E-01   1.00800           0
     18684 MEMB     157      SAPE     C313     CTL2    -0.180000       12.0110           0
     18685 MEMB     157      SAPE     H13X     HAL2     0.900000E-01   1.00800           0
     18686 MEMB     157      SAPE     H13Y     HAL2     0.900000E-01   1.00800           0
     18687 MEMB     157      SAPE     C314     CTL2    -0.180000       12.0110           0
     18688 MEMB     157      SAPE     H14X     HAL2     0.900000E-01   1.00800           0
     18689 MEMB     157      SAPE     H14Y     HAL2     0.900000E-01   1.00800           0
     18690 MEMB     157      SAPE     C315     CTL2    -0.180000       12.0110           0
     18691 MEMB     157      SAPE     H15X     HAL2     0.900000E-01   1.00800           0
     18692 MEMB     157      SAPE     H15Y     HAL2     0.900000E-01   1.00800           0
     18693 MEMB     157      SAPE     C316     CTL2    -0.180000       12.0110           0
     18694 MEMB     157      SAPE     H16X     HAL2     0.900000E-01   1.00800           0
     18695 MEMB     157      SAPE     H16Y     HAL2     0.900000E-01   1.00800           0
     18696 MEMB     157      SAPE     C317     CTL2    -0.180000       12.0110           0
     18697 MEMB     157      SAPE     H17X     HAL2     0.900000E-01   1.00800           0
     18698 MEMB     157      SAPE     H17Y     HAL2     0.900000E-01   1.00800           0
     18699 MEMB     157      SAPE     C318     CTL3    -0.270000       12.0110           0
     18700 MEMB     157      SAPE     H18X     HAL3     0.900000E-01   1.00800           0
     18701 MEMB     157      SAPE     H18Y     HAL3     0.900000E-01   1.00800           0
     18702 MEMB     157      SAPE     H18Z     HAL3     0.900000E-01   1.00800           0
     18703 MEMB     161      SAPE     N        NH3L    -0.300000       14.0070           0
     18704 MEMB     161      SAPE     HN1      HCL      0.330000       1.00800           0
     18705 MEMB     161      SAPE     HN2      HCL      0.330000       1.00800           0
     18706 MEMB     161      SAPE     HN3      HCL      0.330000       1.00800           0
     18707 MEMB     161      SAPE     C12      CTL2     0.130000       12.0110           0
     18708 MEMB     161      SAPE     H12A     HAL2     0.900000E-01   1.00800           0
     18709 MEMB     161      SAPE     H12B     HAL2     0.900000E-01   1.00800           0
     18710 MEMB     161      SAPE     C11      CTL2    -0.800000E-01   12.0110           0
     18711 MEMB     161      SAPE     H11A     HAL2     0.900000E-01   1.00800           0
     18712 MEMB     161      SAPE     H11B     HAL2     0.900000E-01   1.00800           0
     18713 MEMB     161      SAPE     P        PL       1.500000       30.9740           0
     18714 MEMB     161      SAPE     O13      O2L     -0.780000       15.9994           0
     18715 MEMB     161      SAPE     O14      O2L     -0.780000       15.9994           0
     18716 MEMB     161      SAPE     O12      OSLP    -0.570000       15.9994           0
     18717 MEMB     161      SAPE     O11      OSLP    -0.570000       15.9994           0
     18718 MEMB     161      SAPE     C1       CTL2    -0.800000E-01   12.0110           0
     18719 MEMB     161      SAPE     HA       HAL2     0.900000E-01   1.00800           0
     18720 MEMB     161      SAPE     HB       HAL2     0.900000E-01   1.00800           0
     18721 MEMB     161      SAPE     C2       CTL1     0.170000       12.0110           0
     18722 MEMB     161      SAPE     HS       HAL1     0.900000E-01   1.00800           0
     18723 MEMB     161      SAPE     O21      OSL     -0.490000       15.9994           0
     18724 MEMB     161      SAPE     C21      CL       0.900000       12.0110           0
     18725 MEMB     161      SAPE     O22      OBL     -0.630000       15.9994           0
     18726 MEMB     161      SAPE     C22      CTL2    -0.220000       12.0110           0
     18727 MEMB     161      SAPE     H2R      HAL2     0.900000E-01   1.00800           0
     18728 MEMB     161      SAPE     H2S      HAL2     0.900000E-01   1.00800           0
     18729 MEMB     161      SAPE     C3       CTL2     0.800000E-01   12.0110           0
     18730 MEMB     161      SAPE     HX       HAL2     0.900000E-01   1.00800           0
     18731 MEMB     161      SAPE     HY       HAL2     0.900000E-01   1.00800           0
     18732 MEMB     161      SAPE     O31      OSL     -0.490000       15.9994           0
     18733 MEMB     161      SAPE     C31      CL       0.900000       12.0110           0
     18734 MEMB     161      SAPE     O32      OBL     -0.630000       15.9994           0
     18735 MEMB     161      SAPE     C32      CTL2    -0.220000       12.0110           0
     18736 MEMB     161      SAPE     H2X      HAL2     0.900000E-01   1.00800           0
     18737 MEMB     161      SAPE     H2Y      HAL2     0.900000E-01   1.00800           0
     18738 MEMB     161      SAPE     C23      CTL2    -0.180000       12.0110           0
     18739 MEMB     161      SAPE     H3R      HAL2     0.900000E-01   1.00800           0
     18740 MEMB     161      SAPE     H3S      HAL2     0.900000E-01   1.00800           0
     18741 MEMB     161      SAPE     C24      CTL2    -0.180000       12.0110           0
     18742 MEMB     161      SAPE     H4R      HAL2     0.900000E-01   1.00800           0
     18743 MEMB     161      SAPE     H4S      HAL2     0.900000E-01   1.00800           0
     18744 MEMB     161      SAPE     C25      CEL1    -0.150000       12.0110           0
     18745 MEMB     161      SAPE     H5R      HEL1     0.150000       1.00800           0
     18746 MEMB     161      SAPE     C26      CEL1    -0.150000       12.0110           0
     18747 MEMB     161      SAPE     H6R      HEL1     0.150000       1.00800           0
     18748 MEMB     161      SAPE     C27      CTL2    -0.180000       12.0110           0
     18749 MEMB     161      SAPE     H7R      HAL2     0.900000E-01   1.00800           0
     18750 MEMB     161      SAPE     H7S      HAL2     0.900000E-01   1.00800           0
     18751 MEMB     161      SAPE     C28      CEL1    -0.150000       12.0110           0
     18752 MEMB     161      SAPE     H8R      HEL1     0.150000       1.00800           0
     18753 MEMB     161      SAPE     C29      CEL1    -0.150000       12.0110           0
     18754 MEMB     161      SAPE     H9R      HEL1     0.150000       1.00800           0
     18755 MEMB     161      SAPE     C210     CTL2    -0.180000       12.0110           0
     18756 MEMB     161      SAPE     H10R     HAL2     0.900000E-01   1.00800           0
     18757 MEMB     161      SAPE     H10S     HAL2     0.900000E-01   1.00800           0
     18758 MEMB     161      SAPE     C211     CEL1    -0.150000       12.0110           0
     18759 MEMB     161      SAPE     H11R     HEL1     0.150000       1.00800           0
     18760 MEMB     161      SAPE     C212     CEL1    -0.150000       12.0110           0
     18761 MEMB     161      SAPE     H12R     HEL1     0.150000       1.00800           0
     18762 MEMB     161      SAPE     C213     CTL2    -0.180000       12.0110           0
     18763 MEMB     161      SAPE     H13R     HAL2     0.900000E-01   1.00800           0
     18764 MEMB     161      SAPE     H13S     HAL2     0.900000E-01   1.00800           0
     18765 MEMB     161      SAPE     C214     CEL1    -0.150000       12.0110           0
     18766 MEMB     161      SAPE     H14R     HEL1     0.150000       1.00800           0
     18767 MEMB     161      SAPE     C215     CEL1    -0.150000       12.0110           0
     18768 MEMB     161      SAPE     H15R     HEL1     0.150000       1.00800           0
     18769 MEMB     161      SAPE     C216     CTL2    -0.180000       12.0110           0
     18770 MEMB     161      SAPE     H16R     HAL2     0.900000E-01   1.00800           0
     18771 MEMB     161      SAPE     H16S     HAL2     0.900000E-01   1.00800           0
     18772 MEMB     161      SAPE     C217     CTL2    -0.180000       12.0110           0
     18773 MEMB     161      SAPE     H17R     HAL2     0.900000E-01   1.00800           0
     18774 MEMB     161      SAPE     H17S     HAL2     0.900000E-01   1.00800           0
     18775 MEMB     161      SAPE     C218     CTL2    -0.180000       12.0110           0
     18776 MEMB     161      SAPE     H18R     HAL2     0.900000E-01   1.00800           0
     18777 MEMB     161      SAPE     H18S     HAL2     0.900000E-01   1.00800           0
     18778 MEMB     161      SAPE     C219     CTL2    -0.180000       12.0110           0
     18779 MEMB     161      SAPE     H19R     HAL2     0.900000E-01   1.00800           0
     18780 MEMB     161      SAPE     H19S     HAL2     0.900000E-01   1.00800           0
     18781 MEMB     161      SAPE     C220     CTL3    -0.270000       12.0110           0
     18782 MEMB     161      SAPE     H20R     HAL3     0.900000E-01   1.00800           0
     18783 MEMB     161      SAPE     H20S     HAL3     0.900000E-01   1.00800           0
     18784 MEMB     161      SAPE     H20T     HAL3     0.900000E-01   1.00800           0
     18785 MEMB     161      SAPE     C33      CTL2    -0.180000       12.0110           0
     18786 MEMB     161      SAPE     H3X      HAL2     0.900000E-01   1.00800           0
     18787 MEMB     161      SAPE     H3Y      HAL2     0.900000E-01   1.00800           0
     18788 MEMB     161      SAPE     C34      CTL2    -0.180000       12.0110           0
     18789 MEMB     161      SAPE     H4X      HAL2     0.900000E-01   1.00800           0
     18790 MEMB     161      SAPE     H4Y      HAL2     0.900000E-01   1.00800           0
     18791 MEMB     161      SAPE     C35      CTL2    -0.180000       12.0110           0
     18792 MEMB     161      SAPE     H5X      HAL2     0.900000E-01   1.00800           0
     18793 MEMB     161      SAPE     H5Y      HAL2     0.900000E-01   1.00800           0
     18794 MEMB     161      SAPE     C36      CTL2    -0.180000       12.0110           0
     18795 MEMB     161      SAPE     H6X      HAL2     0.900000E-01   1.00800           0
     18796 MEMB     161      SAPE     H6Y      HAL2     0.900000E-01   1.00800           0
     18797 MEMB     161      SAPE     C37      CTL2    -0.180000       12.0110           0
     18798 MEMB     161      SAPE     H7X      HAL2     0.900000E-01   1.00800           0
     18799 MEMB     161      SAPE     H7Y      HAL2     0.900000E-01   1.00800           0
     18800 MEMB     161      SAPE     C38      CTL2    -0.180000       12.0110           0
     18801 MEMB     161      SAPE     H8X      HAL2     0.900000E-01   1.00800           0
     18802 MEMB     161      SAPE     H8Y      HAL2     0.900000E-01   1.00800           0
     18803 MEMB     161      SAPE     C39      CTL2    -0.180000       12.0110           0
     18804 MEMB     161      SAPE     H9X      HAL2     0.900000E-01   1.00800           0
     18805 MEMB     161      SAPE     H9Y      HAL2     0.900000E-01   1.00800           0
     18806 MEMB     161      SAPE     C310     CTL2    -0.180000       12.0110           0
     18807 MEMB     161      SAPE     H10X     HAL2     0.900000E-01   1.00800           0
     18808 MEMB     161      SAPE     H10Y     HAL2     0.900000E-01   1.00800           0
     18809 MEMB     161      SAPE     C311     CTL2    -0.180000       12.0110           0
     18810 MEMB     161      SAPE     H11X     HAL2     0.900000E-01   1.00800           0
     18811 MEMB     161      SAPE     H11Y     HAL2     0.900000E-01   1.00800           0
     18812 MEMB     161      SAPE     C312     CTL2    -0.180000       12.0110           0
     18813 MEMB     161      SAPE     H12X     HAL2     0.900000E-01   1.00800           0
     18814 MEMB     161      SAPE     H12Y     HAL2     0.900000E-01   1.00800           0
     18815 MEMB     161      SAPE     C313     CTL2    -0.180000       12.0110           0
     18816 MEMB     161      SAPE     H13X     HAL2     0.900000E-01   1.00800           0
     18817 MEMB     161      SAPE     H13Y     HAL2     0.900000E-01   1.00800           0
     18818 MEMB     161      SAPE     C314     CTL2    -0.180000       12.0110           0
     18819 MEMB     161      SAPE     H14X     HAL2     0.900000E-01   1.00800           0
     18820 MEMB     161      SAPE     H14Y     HAL2     0.900000E-01   1.00800           0
     18821 MEMB     161      SAPE     C315     CTL2    -0.180000       12.0110           0
     18822 MEMB     161      SAPE     H15X     HAL2     0.900000E-01   1.00800           0
     18823 MEMB     161      SAPE     H15Y     HAL2     0.900000E-01   1.00800           0
     18824 MEMB     161      SAPE     C316     CTL2    -0.180000       12.0110           0
     18825 MEMB     161      SAPE     H16X     HAL2     0.900000E-01   1.00800           0
     18826 MEMB     161      SAPE     H16Y     HAL2     0.900000E-01   1.00800           0
     18827 MEMB     161      SAPE     C317     CTL2    -0.180000       12.0110           0
     18828 MEMB     161      SAPE     H17X     HAL2     0.900000E-01   1.00800           0
     18829 MEMB     161      SAPE     H17Y     HAL2     0.900000E-01   1.00800           0
     18830 MEMB     161      SAPE     C318     CTL3    -0.270000       12.0110           0
     18831 MEMB     161      SAPE     H18X     HAL3     0.900000E-01   1.00800           0
     18832 MEMB     161      SAPE     H18Y     HAL3     0.900000E-01   1.00800           0
     18833 MEMB     161      SAPE     H18Z     HAL3     0.900000E-01   1.00800           0
     18834 MEMB     169      SAPE     N        NH3L    -0.300000       14.0070           0
     18835 MEMB     169      SAPE     HN1      HCL      0.330000       1.00800           0
     18836 MEMB     169      SAPE     HN2      HCL      0.330000       1.00800           0
     18837 MEMB     169      SAPE     HN3      HCL      0.330000       1.00800           0
     18838 MEMB     169      SAPE     C12      CTL2     0.130000       12.0110           0
     18839 MEMB     169      SAPE     H12A     HAL2     0.900000E-01   1.00800           0
     18840 MEMB     169      SAPE     H12B     HAL2     0.900000E-01   1.00800           0
     18841 MEMB     169      SAPE     C11      CTL2    -0.800000E-01   12.0110           0
     18842 MEMB     169      SAPE     H11A     HAL2     0.900000E-01   1.00800           0
     18843 MEMB     169      SAPE     H11B     HAL2     0.900000E-01   1.00800           0
     18844 MEMB     169      SAPE     P        PL       1.500000       30.9740           0
     18845 MEMB     169      SAPE     O13      O2L     -0.780000       15.9994           0
     18846 MEMB     169      SAPE     O14      O2L     -0.780000       15.9994           0
     18847 MEMB     169      SAPE     O12      OSLP    -0.570000       15.9994           0
     18848 MEMB     169      SAPE     O11      OSLP    -0.570000       15.9994           0
     18849 MEMB     169      SAPE     C1       CTL2    -0.800000E-01   12.0110           0
     18850 MEMB     169      SAPE     HA       HAL2     0.900000E-01   1.00800           0
     18851 MEMB     169      SAPE     HB       HAL2     0.900000E-01   1.00800           0
     18852 MEMB     169      SAPE     C2       CTL1     0.170000       12.0110           0
     18853 MEMB     169      SAPE     HS       HAL1     0.900000E-01   1.00800           0
     18854 MEMB     169      SAPE     O21      OSL     -0.490000       15.9994           0
     18855 MEMB     169      SAPE     C21      CL       0.900000       12.0110           0
     18856 MEMB     169      SAPE     O22      OBL     -0.630000       15.9994           0
     18857 MEMB     169      SAPE     C22      CTL2    -0.220000       12.0110           0
     18858 MEMB     169      SAPE     H2R      HAL2     0.900000E-01   1.00800           0
     18859 MEMB     169      SAPE     H2S      HAL2     0.900000E-01   1.00800           0
     18860 MEMB     169      SAPE     C3       CTL2     0.800000E-01   12.0110           0
     18861 MEMB     169      SAPE     HX       HAL2     0.900000E-01   1.00800           0
     18862 MEMB     169      SAPE     HY       HAL2     0.900000E-01   1.00800           0
     18863 MEMB     169      SAPE     O31      OSL     -0.490000       15.9994           0
     18864 MEMB     169      SAPE     C31      CL       0.900000       12.0110           0
     18865 MEMB     169      SAPE     O32      OBL     -0.630000       15.9994           0
     18866 MEMB     169      SAPE     C32      CTL2    -0.220000       12.0110           0
     18867 MEMB     169      SAPE     H2X      HAL2     0.900000E-01   1.00800           0
     18868 MEMB     169      SAPE     H2Y      HAL2     0.900000E-01   1.00800           0
     18869 MEMB     169      SAPE     C23      CTL2    -0.180000       12.0110           0
     18870 MEMB     169      SAPE     H3R      HAL2     0.900000E-01   1.00800           0
     18871 MEMB     169      SAPE     H3S      HAL2     0.900000E-01   1.00800           0
     18872 MEMB     169      SAPE     C24      CTL2    -0.180000       12.0110           0
     18873 MEMB     169      SAPE     H4R      HAL2     0.900000E-01   1.00800           0
     18874 MEMB     169      SAPE     H4S      HAL2     0.900000E-01   1.00800           0
     18875 MEMB     169      SAPE     C25      CEL1    -0.150000       12.0110           0
     18876 MEMB     169      SAPE     H5R      HEL1     0.150000       1.00800           0
     18877 MEMB     169      SAPE     C26      CEL1    -0.150000       12.0110           0
     18878 MEMB     169      SAPE     H6R      HEL1     0.150000       1.00800           0
     18879 MEMB     169      SAPE     C27      CTL2    -0.180000       12.0110           0
     18880 MEMB     169      SAPE     H7R      HAL2     0.900000E-01   1.00800           0
     18881 MEMB     169      SAPE     H7S      HAL2     0.900000E-01   1.00800           0
     18882 MEMB     169      SAPE     C28      CEL1    -0.150000       12.0110           0
     18883 MEMB     169      SAPE     H8R      HEL1     0.150000       1.00800           0
     18884 MEMB     169      SAPE     C29      CEL1    -0.150000       12.0110           0
     18885 MEMB     169      SAPE     H9R      HEL1     0.150000       1.00800           0
     18886 MEMB     169      SAPE     C210     CTL2    -0.180000       12.0110           0
     18887 MEMB     169      SAPE     H10R     HAL2     0.900000E-01   1.00800           0
     18888 MEMB     169      SAPE     H10S     HAL2     0.900000E-01   1.00800           0
     18889 MEMB     169      SAPE     C211     CEL1    -0.150000       12.0110           0
     18890 MEMB     169      SAPE     H11R     HEL1     0.150000       1.00800           0
     18891 MEMB     169      SAPE     C212     CEL1    -0.150000       12.0110           0
     18892 MEMB     169      SAPE     H12R     HEL1     0.150000       1.00800           0
     18893 MEMB     169      SAPE     C213     CTL2    -0.180000       12.0110           0
     18894 MEMB     169      SAPE     H13R     HAL2     0.900000E-01   1.00800           0
     18895 MEMB     169      SAPE     H13S     HAL2     0.900000E-01   1.00800           0
     18896 MEMB     169      SAPE     C214     CEL1    -0.150000       12.0110           0
     18897 MEMB     169      SAPE     H14R     HEL1     0.150000       1.00800           0
     18898 MEMB     169      SAPE     C215     CEL1    -0.150000       12.0110           0
     18899 MEMB     169      SAPE     H15R     HEL1     0.150000       1.00800           0
     18900 MEMB     169      SAPE     C216     CTL2    -0.180000       12.0110           0
     18901 MEMB     169      SAPE     H16R     HAL2     0.900000E-01   1.00800           0
     18902 MEMB     169      SAPE     H16S     HAL2     0.900000E-01   1.00800           0
     18903 MEMB     169      SAPE     C217     CTL2    -0.180000       12.0110           0
     18904 MEMB     169      SAPE     H17R     HAL2     0.900000E-01   1.00800           0
     18905 MEMB     169      SAPE     H17S     HAL2     0.900000E-01   1.00800           0
     18906 MEMB     169      SAPE     C218     CTL2    -0.180000       12.0110           0
     18907 MEMB     169      SAPE     H18R     HAL2     0.900000E-01   1.00800           0
     18908 MEMB     169      SAPE     H18S     HAL2     0.900000E-01   1.00800           0
     18909 MEMB     169      SAPE     C219     CTL2    -0.180000       12.0110           0
     18910 MEMB     169      SAPE     H19R     HAL2     0.900000E-01   1.00800           0
     18911 MEMB     169      SAPE     H19S     HAL2     0.900000E-01   1.00800           0
     18912 MEMB     169      SAPE     C220     CTL3    -0.270000       12.0110           0
     18913 MEMB     169      SAPE     H20R     HAL3     0.900000E-01   1.00800           0
     18914 MEMB     169      SAPE     H20S     HAL3     0.900000E-01   1.00800           0
     18915 MEMB     169      SAPE     H20T     HAL3     0.900000E-01   1.00800           0
     18916 MEMB     169      SAPE     C33      CTL2    -0.180000       12.0110           0
     18917 MEMB     169      SAPE     H3X      HAL2     0.900000E-01   1.00800           0
     18918 MEMB     169      SAPE     H3Y      HAL2     0.900000E-01   1.00800           0
     18919 MEMB     169      SAPE     C34      CTL2    -0.180000       12.0110           0
     18920 MEMB     169      SAPE     H4X      HAL2     0.900000E-01   1.00800           0
     18921 MEMB     169      SAPE     H4Y      HAL2     0.900000E-01   1.00800           0
     18922 MEMB     169      SAPE     C35      CTL2    -0.180000       12.0110           0
     18923 MEMB     169      SAPE     H5X      HAL2     0.900000E-01   1.00800           0
     18924 MEMB     169      SAPE     H5Y      HAL2     0.900000E-01   1.00800           0
     18925 MEMB     169      SAPE     C36      CTL2    -0.180000       12.0110           0
     18926 MEMB     169      SAPE     H6X      HAL2     0.900000E-01   1.00800           0
     18927 MEMB     169      SAPE     H6Y      HAL2     0.900000E-01   1.00800           0
     18928 MEMB     169      SAPE     C37      CTL2    -0.180000       12.0110           0
     18929 MEMB     169      SAPE     H7X      HAL2     0.900000E-01   1.00800           0
     18930 MEMB     169      SAPE     H7Y      HAL2     0.900000E-01   1.00800           0
     18931 MEMB     169      SAPE     C38      CTL2    -0.180000       12.0110           0
     18932 MEMB     169      SAPE     H8X      HAL2     0.900000E-01   1.00800           0
     18933 MEMB     169      SAPE     H8Y      HAL2     0.900000E-01   1.00800           0
     18934 MEMB     169      SAPE     C39      CTL2    -0.180000       12.0110           0
     18935 MEMB     169      SAPE     H9X      HAL2     0.900000E-01   1.00800           0
     18936 MEMB     169      SAPE     H9Y      HAL2     0.900000E-01   1.00800           0
     18937 MEMB     169      SAPE     C310     CTL2    -0.180000       12.0110           0
     18938 MEMB     169      SAPE     H10X     HAL2     0.900000E-01   1.00800           0
     18939 MEMB     169      SAPE     H10Y     HAL2     0.900000E-01   1.00800           0
     18940 MEMB     169      SAPE     C311     CTL2    -0.180000       12.0110           0
     18941 MEMB     169      SAPE     H11X     HAL2     0.900000E-01   1.00800           0
     18942 MEMB     169      SAPE     H11Y     HAL2     0.900000E-01   1.00800           0
     18943 MEMB     169      SAPE     C312     CTL2    -0.180000       12.0110           0
     18944 MEMB     169      SAPE     H12X     HAL2     0.900000E-01   1.00800           0
     18945 MEMB     169      SAPE     H12Y     HAL2     0.900000E-01   1.00800           0
     18946 MEMB     169      SAPE     C313     CTL2    -0.180000       12.0110           0
     18947 MEMB     169      SAPE     H13X     HAL2     0.900000E-01   1.00800           0
     18948 MEMB     169      SAPE     H13Y     HAL2     0.900000E-01   1.00800           0
     18949 MEMB     169      SAPE     C314     CTL2    -0.180000       12.0110           0
     18950 MEMB     169      SAPE     H14X     HAL2     0.900000E-01   1.00800           0
     18951 MEMB     169      SAPE     H14Y     HAL2     0.900000E-01   1.00800           0
     18952 MEMB     169      SAPE     C315     CTL2    -0.180000       12.0110           0
     18953 MEMB     169      SAPE     H15X     HAL2     0.900000E-01   1.00800           0
     18954 MEMB     169      SAPE     H15Y     HAL2     0.900000E-01   1.00800           0
     18955 MEMB     169      SAPE     C316     CTL2    -0.180000       12.0110           0
     18956 MEMB     169      SAPE     H16X     HAL2     0.900000E-01   1.00800           0
     18957 MEMB     169      SAPE     H16Y     HAL2     0.900000E-01   1.00800           0
     18958 MEMB     169      SAPE     C317     CTL2    -0.180000       12.0110           0
     18959 MEMB     169      SAPE     H17X     HAL2     0.900000E-01   1.00800           0
     18960 MEMB     169      SAPE     H17Y     HAL2     0.900000E-01   1.00800           0
     18961 MEMB     169      SAPE     C318     CTL3    -0.270000       12.0110           0
     18962 MEMB     169      SAPE     H18X     HAL3     0.900000E-01   1.00800           0
     18963 MEMB     169      SAPE     H18Y     HAL3     0.900000E-01   1.00800           0
     18964 MEMB     169      SAPE     H18Z     HAL3     0.900000E-01   1.00800           0
     18965 MEMB     174      SAPE     N        NH3L    -0.300000       14.0070           0
     18966 MEMB     174      SAPE     HN1      HCL      0.330000       1.00800           0
     18967 MEMB     174      SAPE     HN2      HCL      0.330000       1.00800           0
     18968 MEMB     174      SAPE     HN3      HCL      0.330000       1.00800           0
     18969 MEMB     174      SAPE     C12      CTL2     0.130000       12.0110           0
     18970 MEMB     174      SAPE     H12A     HAL2     0.900000E-01   1.00800           0
     18971 MEMB     174      SAPE     H12B     HAL2     0.900000E-01   1.00800           0
     18972 MEMB     174      SAPE     C11      CTL2    -0.800000E-01   12.0110           0
     18973 MEMB     174      SAPE     H11A     HAL2     0.900000E-01   1.00800           0
     18974 MEMB     174      SAPE     H11B     HAL2     0.900000E-01   1.00800           0
     18975 MEMB     174      SAPE     P        PL       1.500000       30.9740           0
     18976 MEMB     174      SAPE     O13      O2L     -0.780000       15.9994           0
     18977 MEMB     174      SAPE     O14      O2L     -0.780000       15.9994           0
     18978 MEMB     174      SAPE     O12      OSLP    -0.570000       15.9994           0
     18979 MEMB     174      SAPE     O11      OSLP    -0.570000       15.9994           0
     18980 MEMB     174      SAPE     C1       CTL2    -0.800000E-01   12.0110           0
     18981 MEMB     174      SAPE     HA       HAL2     0.900000E-01   1.00800           0
     18982 MEMB     174      SAPE     HB       HAL2     0.900000E-01   1.00800           0
     18983 MEMB     174      SAPE     C2       CTL1     0.170000       12.0110           0
     18984 MEMB     174      SAPE     HS       HAL1     0.900000E-01   1.00800           0
     18985 MEMB     174      SAPE     O21      OSL     -0.490000       15.9994           0
     18986 MEMB     174      SAPE     C21      CL       0.900000       12.0110           0
     18987 MEMB     174      SAPE     O22      OBL     -0.630000       15.9994           0
     18988 MEMB     174      SAPE     C22      CTL2    -0.220000       12.0110           0
     18989 MEMB     174      SAPE     H2R      HAL2     0.900000E-01   1.00800           0
     18990 MEMB     174      SAPE     H2S      HAL2     0.900000E-01   1.00800           0
     18991 MEMB     174      SAPE     C3       CTL2     0.800000E-01   12.0110           0
     18992 MEMB     174      SAPE     HX       HAL2     0.900000E-01   1.00800           0
     18993 MEMB     174      SAPE     HY       HAL2     0.900000E-01   1.00800           0
     18994 MEMB     174      SAPE     O31      OSL     -0.490000       15.9994           0
     18995 MEMB     174      SAPE     C31      CL       0.900000       12.0110           0
     18996 MEMB     174      SAPE     O32      OBL     -0.630000       15.9994           0
     18997 MEMB     174      SAPE     C32      CTL2    -0.220000       12.0110           0
     18998 MEMB     174      SAPE     H2X      HAL2     0.900000E-01   1.00800           0
     18999 MEMB     174      SAPE     H2Y      HAL2     0.900000E-01   1.00800           0
     19000 MEMB     174      SAPE     C23      CTL2    -0.180000       12.0110           0
     19001 MEMB     174      SAPE     H3R      HAL2     0.900000E-01   1.00800           0
     19002 MEMB     174      SAPE     H3S      HAL2     0.900000E-01   1.00800           0
     19003 MEMB     174      SAPE     C24      CTL2    -0.180000       12.0110           0
     19004 MEMB     174      SAPE     H4R      HAL2     0.900000E-01   1.00800           0
     19005 MEMB     174      SAPE     H4S      HAL2     0.900000E-01   1.00800           0
     19006 MEMB     174      SAPE     C25      CEL1    -0.150000       12.0110           0
     19007 MEMB     174      SAPE     H5R      HEL1     0.150000       1.00800           0
     19008 MEMB     174      SAPE     C26      CEL1    -0.150000       12.0110           0
     19009 MEMB     174      SAPE     H6R      HEL1     0.150000       1.00800           0
     19010 MEMB     174      SAPE     C27      CTL2    -0.180000       12.0110           0
     19011 MEMB     174      SAPE     H7R      HAL2     0.900000E-01   1.00800           0
     19012 MEMB     174      SAPE     H7S      HAL2     0.900000E-01   1.00800           0
     19013 MEMB     174      SAPE     C28      CEL1    -0.150000       12.0110           0
     19014 MEMB     174      SAPE     H8R      HEL1     0.150000       1.00800           0
     19015 MEMB     174      SAPE     C29      CEL1    -0.150000       12.0110           0
     19016 MEMB     174      SAPE     H9R      HEL1     0.150000       1.00800           0
     19017 MEMB     174      SAPE     C210     CTL2    -0.180000       12.0110           0
     19018 MEMB     174      SAPE     H10R     HAL2     0.900000E-01   1.00800           0
     19019 MEMB     174      SAPE     H10S     HAL2     0.900000E-01   1.00800           0
     19020 MEMB     174      SAPE     C211     CEL1    -0.150000       12.0110           0
     19021 MEMB     174      SAPE     H11R     HEL1     0.150000       1.00800           0
     19022 MEMB     174      SAPE     C212     CEL1    -0.150000       12.0110           0
     19023 MEMB     174      SAPE     H12R     HEL1     0.150000       1.00800           0
     19024 MEMB     174      SAPE     C213     CTL2    -0.180000       12.0110           0
     19025 MEMB     174      SAPE     H13R     HAL2     0.900000E-01   1.00800           0
     19026 MEMB     174      SAPE     H13S     HAL2     0.900000E-01   1.00800           0
     19027 MEMB     174      SAPE     C214     CEL1    -0.150000       12.0110           0
     19028 MEMB     174      SAPE     H14R     HEL1     0.150000       1.00800           0
     19029 MEMB     174      SAPE     C215     CEL1    -0.150000       12.0110           0
     19030 MEMB     174      SAPE     H15R     HEL1     0.150000       1.00800           0
     19031 MEMB     174      SAPE     C216     CTL2    -0.180000       12.0110           0
     19032 MEMB     174      SAPE     H16R     HAL2     0.900000E-01   1.00800           0
     19033 MEMB     174      SAPE     H16S     HAL2     0.900000E-01   1.00800           0
     19034 MEMB     174      SAPE     C217     CTL2    -0.180000       12.0110           0
     19035 MEMB     174      SAPE     H17R     HAL2     0.900000E-01   1.00800           0
     19036 MEMB     174      SAPE     H17S     HAL2     0.900000E-01   1.00800           0
     19037 MEMB     174      SAPE     C218     CTL2    -0.180000       12.0110           0
     19038 MEMB     174      SAPE     H18R     HAL2     0.900000E-01   1.00800           0
     19039 MEMB     174      SAPE     H18S     HAL2     0.900000E-01   1.00800           0
     19040 MEMB     174      SAPE     C219     CTL2    -0.180000       12.0110           0
     19041 MEMB     174      SAPE     H19R     HAL2     0.900000E-01   1.00800           0
     19042 MEMB     174      SAPE     H19S     HAL2     0.900000E-01   1.00800           0
     19043 MEMB     174      SAPE     C220     CTL3    -0.270000       12.0110           0
     19044 MEMB     174      SAPE     H20R     HAL3     0.900000E-01   1.00800           0
     19045 MEMB     174      SAPE     H20S     HAL3     0.900000E-01   1.00800           0
     19046 MEMB     174      SAPE     H20T     HAL3     0.900000E-01   1.00800           0
     19047 MEMB     174      SAPE     C33      CTL2    -0.180000       12.0110           0
     19048 MEMB     174      SAPE     H3X      HAL2     0.900000E-01   1.00800           0
     19049 MEMB     174      SAPE     H3Y      HAL2     0.900000E-01   1.00800           0
     19050 MEMB     174      SAPE     C34      CTL2    -0.180000       12.0110           0
     19051 MEMB     174      SAPE     H4X      HAL2     0.900000E-01   1.00800           0
     19052 MEMB     174      SAPE     H4Y      HAL2     0.900000E-01   1.00800           0
     19053 MEMB     174      SAPE     C35      CTL2    -0.180000       12.0110           0
     19054 MEMB     174      SAPE     H5X      HAL2     0.900000E-01   1.00800           0
     19055 MEMB     174      SAPE     H5Y      HAL2     0.900000E-01   1.00800           0
     19056 MEMB     174      SAPE     C36      CTL2    -0.180000       12.0110           0
     19057 MEMB     174      SAPE     H6X      HAL2     0.900000E-01   1.00800           0
     19058 MEMB     174      SAPE     H6Y      HAL2     0.900000E-01   1.00800           0
     19059 MEMB     174      SAPE     C37      CTL2    -0.180000       12.0110           0
     19060 MEMB     174      SAPE     H7X      HAL2     0.900000E-01   1.00800           0
     19061 MEMB     174      SAPE     H7Y      HAL2     0.900000E-01   1.00800           0
     19062 MEMB     174      SAPE     C38      CTL2    -0.180000       12.0110           0
     19063 MEMB     174      SAPE     H8X      HAL2     0.900000E-01   1.00800           0
     19064 MEMB     174      SAPE     H8Y      HAL2     0.900000E-01   1.00800           0
     19065 MEMB     174      SAPE     C39      CTL2    -0.180000       12.0110           0
     19066 MEMB     174      SAPE     H9X      HAL2     0.900000E-01   1.00800           0
     19067 MEMB     174      SAPE     H9Y      HAL2     0.900000E-01   1.00800           0
     19068 MEMB     174      SAPE     C310     CTL2    -0.180000       12.0110           0
     19069 MEMB     174      SAPE     H10X     HAL2     0.900000E-01   1.00800           0
     19070 MEMB     174      SAPE     H10Y     HAL2     0.900000E-01   1.00800           0
     19071 MEMB     174      SAPE     C311     CTL2    -0.180000       12.0110           0
     19072 MEMB     174      SAPE     H11X     HAL2     0.900000E-01   1.00800           0
     19073 MEMB     174      SAPE     H11Y     HAL2     0.900000E-01   1.00800           0
     19074 MEMB     174      SAPE     C312     CTL2    -0.180000       12.0110           0
     19075 MEMB     174      SAPE     H12X     HAL2     0.900000E-01   1.00800           0
     19076 MEMB     174      SAPE     H12Y     HAL2     0.900000E-01   1.00800           0
     19077 MEMB     174      SAPE     C313     CTL2    -0.180000       12.0110           0
     19078 MEMB     174      SAPE     H13X     HAL2     0.900000E-01   1.00800           0
     19079 MEMB     174      SAPE     H13Y     HAL2     0.900000E-01   1.00800           0
     19080 MEMB     174      SAPE     C314     CTL2    -0.180000       12.0110           0
     19081 MEMB     174      SAPE     H14X     HAL2     0.900000E-01   1.00800           0
     19082 MEMB     174      SAPE     H14Y     HAL2     0.900000E-01   1.00800           0
     19083 MEMB     174      SAPE     C315     CTL2    -0.180000       12.0110           0
     19084 MEMB     174      SAPE     H15X     HAL2     0.900000E-01   1.00800           0
     19085 MEMB     174      SAPE     H15Y     HAL2     0.900000E-01   1.00800           0
     19086 MEMB     174      SAPE     C316     CTL2    -0.180000       12.0110           0
     19087 MEMB     174      SAPE     H16X     HAL2     0.900000E-01   1.00800           0
     19088 MEMB     174      SAPE     H16Y     HAL2     0.900000E-01   1.00800           0
     19089 MEMB     174      SAPE     C317     CTL2    -0.180000       12.0110           0
     19090 MEMB     174      SAPE     H17X     HAL2     0.900000E-01   1.00800           0
     19091 MEMB     174      SAPE     H17Y     HAL2     0.900000E-01   1.00800           0
     19092 MEMB     174      SAPE     C318     CTL3    -0.270000       12.0110           0
     19093 MEMB     174      SAPE     H18X     HAL3     0.900000E-01   1.00800           0
     19094 MEMB     174      SAPE     H18Y     HAL3     0.900000E-01   1.00800           0
     19095 MEMB     174      SAPE     H18Z     HAL3     0.900000E-01   1.00800           0
     19096 MEMB     177      SAPE     N        NH3L    -0.300000       14.0070           0
     19097 MEMB     177      SAPE     HN1      HCL      0.330000       1.00800           0
     19098 MEMB     177      SAPE     HN2      HCL      0.330000       1.00800           0
     19099 MEMB     177      SAPE     HN3      HCL      0.330000       1.00800           0
     19100 MEMB     177      SAPE     C12      CTL2     0.130000       12.0110           0
     19101 MEMB     177      SAPE     H12A     HAL2     0.900000E-01   1.00800           0
     19102 MEMB     177      SAPE     H12B     HAL2     0.900000E-01   1.00800           0
     19103 MEMB     177      SAPE     C11      CTL2    -0.800000E-01   12.0110           0
     19104 MEMB     177      SAPE     H11A     HAL2     0.900000E-01   1.00800           0
     19105 MEMB     177      SAPE     H11B     HAL2     0.900000E-01   1.00800           0
     19106 MEMB     177      SAPE     P        PL       1.500000       30.9740           0
     19107 MEMB     177      SAPE     O13      O2L     -0.780000       15.9994           0
     19108 MEMB     177      SAPE     O14      O2L     -0.780000       15.9994           0
     19109 MEMB     177      SAPE     O12      OSLP    -0.570000       15.9994           0
     19110 MEMB     177      SAPE     O11      OSLP    -0.570000       15.9994           0
     19111 MEMB     177      SAPE     C1       CTL2    -0.800000E-01   12.0110           0
     19112 MEMB     177      SAPE     HA       HAL2     0.900000E-01   1.00800           0
     19113 MEMB     177      SAPE     HB       HAL2     0.900000E-01   1.00800           0
     19114 MEMB     177      SAPE     C2       CTL1     0.170000       12.0110           0
     19115 MEMB     177      SAPE     HS       HAL1     0.900000E-01   1.00800           0
     19116 MEMB     177      SAPE     O21      OSL     -0.490000       15.9994           0
     19117 MEMB     177      SAPE     C21      CL       0.900000       12.0110           0
     19118 MEMB     177      SAPE     O22      OBL     -0.630000       15.9994           0
     19119 MEMB     177      SAPE     C22      CTL2    -0.220000       12.0110           0
     19120 MEMB     177      SAPE     H2R      HAL2     0.900000E-01   1.00800           0
     19121 MEMB     177      SAPE     H2S      HAL2     0.900000E-01   1.00800           0
     19122 MEMB     177      SAPE     C3       CTL2     0.800000E-01   12.0110           0
     19123 MEMB     177      SAPE     HX       HAL2     0.900000E-01   1.00800           0
     19124 MEMB     177      SAPE     HY       HAL2     0.900000E-01   1.00800           0
     19125 MEMB     177      SAPE     O31      OSL     -0.490000       15.9994           0
     19126 MEMB     177      SAPE     C31      CL       0.900000       12.0110           0
     19127 MEMB     177      SAPE     O32      OBL     -0.630000       15.9994           0
     19128 MEMB     177      SAPE     C32      CTL2    -0.220000       12.0110           0
     19129 MEMB     177      SAPE     H2X      HAL2     0.900000E-01   1.00800           0
     19130 MEMB     177      SAPE     H2Y      HAL2     0.900000E-01   1.00800           0
     19131 MEMB     177      SAPE     C23      CTL2    -0.180000       12.0110           0
     19132 MEMB     177      SAPE     H3R      HAL2     0.900000E-01   1.00800           0
     19133 MEMB     177      SAPE     H3S      HAL2     0.900000E-01   1.00800           0
     19134 MEMB     177      SAPE     C24      CTL2    -0.180000       12.0110           0
     19135 MEMB     177      SAPE     H4R      HAL2     0.900000E-01   1.00800           0
     19136 MEMB     177      SAPE     H4S      HAL2     0.900000E-01   1.00800           0
     19137 MEMB     177      SAPE     C25      CEL1    -0.150000       12.0110           0
     19138 MEMB     177      SAPE     H5R      HEL1     0.150000       1.00800           0
     19139 MEMB     177      SAPE     C26      CEL1    -0.150000       12.0110           0
     19140 MEMB     177      SAPE     H6R      HEL1     0.150000       1.00800           0
     19141 MEMB     177      SAPE     C27      CTL2    -0.180000       12.0110           0
     19142 MEMB     177      SAPE     H7R      HAL2     0.900000E-01   1.00800           0
     19143 MEMB     177      SAPE     H7S      HAL2     0.900000E-01   1.00800           0
     19144 MEMB     177      SAPE     C28      CEL1    -0.150000       12.0110           0
     19145 MEMB     177      SAPE     H8R      HEL1     0.150000       1.00800           0
     19146 MEMB     177      SAPE     C29      CEL1    -0.150000       12.0110           0
     19147 MEMB     177      SAPE     H9R      HEL1     0.150000       1.00800           0
     19148 MEMB     177      SAPE     C210     CTL2    -0.180000       12.0110           0
     19149 MEMB     177      SAPE     H10R     HAL2     0.900000E-01   1.00800           0
     19150 MEMB     177      SAPE     H10S     HAL2     0.900000E-01   1.00800           0
     19151 MEMB     177      SAPE     C211     CEL1    -0.150000       12.0110           0
     19152 MEMB     177      SAPE     H11R     HEL1     0.150000       1.00800           0
     19153 MEMB     177      SAPE     C212     CEL1    -0.150000       12.0110           0
     19154 MEMB     177      SAPE     H12R     HEL1     0.150000       1.00800           0
     19155 MEMB     177      SAPE     C213     CTL2    -0.180000       12.0110           0
     19156 MEMB     177      SAPE     H13R     HAL2     0.900000E-01   1.00800           0
     19157 MEMB     177      SAPE     H13S     HAL2     0.900000E-01   1.00800           0
     19158 MEMB     177      SAPE     C214     CEL1    -0.150000       12.0110           0
     19159 MEMB     177      SAPE     H14R     HEL1     0.150000       1.00800           0
     19160 MEMB     177      SAPE     C215     CEL1    -0.150000       12.0110           0
     19161 MEMB     177      SAPE     H15R     HEL1     0.150000       1.00800           0
     19162 MEMB     177      SAPE     C216     CTL2    -0.180000       12.0110           0
     19163 MEMB     177      SAPE     H16R     HAL2     0.900000E-01   1.00800           0
     19164 MEMB     177      SAPE     H16S     HAL2     0.900000E-01   1.00800           0
     19165 MEMB     177      SAPE     C217     CTL2    -0.180000       12.0110           0
     19166 MEMB     177      SAPE     H17R     HAL2     0.900000E-01   1.00800           0
     19167 MEMB     177      SAPE     H17S     HAL2     0.900000E-01   1.00800           0
     19168 MEMB     177      SAPE     C218     CTL2    -0.180000       12.0110           0
     19169 MEMB     177      SAPE     H18R     HAL2     0.900000E-01   1.00800           0
     19170 MEMB     177      SAPE     H18S     HAL2     0.900000E-01   1.00800           0
     19171 MEMB     177      SAPE     C219     CTL2    -0.180000       12.0110           0
     19172 MEMB     177      SAPE     H19R     HAL2     0.900000E-01   1.00800           0
     19173 MEMB     177      SAPE     H19S     HAL2     0.900000E-01   1.00800           0
     19174 MEMB     177      SAPE     C220     CTL3    -0.270000       12.0110           0
     19175 MEMB     177      SAPE     H20R     HAL3     0.900000E-01   1.00800           0
     19176 MEMB     177      SAPE     H20S     HAL3     0.900000E-01   1.00800           0
     19177 MEMB     177      SAPE     H20T     HAL3     0.900000E-01   1.00800           0
     19178 MEMB     177      SAPE     C33      CTL2    -0.180000       12.0110           0
     19179 MEMB     177      SAPE     H3X      HAL2     0.900000E-01   1.00800           0
     19180 MEMB     177      SAPE     H3Y      HAL2     0.900000E-01   1.00800           0
     19181 MEMB     177      SAPE     C34      CTL2    -0.180000       12.0110           0
     19182 MEMB     177      SAPE     H4X      HAL2     0.900000E-01   1.00800           0
     19183 MEMB     177      SAPE     H4Y      HAL2     0.900000E-01   1.00800           0
     19184 MEMB     177      SAPE     C35      CTL2    -0.180000       12.0110           0
     19185 MEMB     177      SAPE     H5X      HAL2     0.900000E-01   1.00800           0
     19186 MEMB     177      SAPE     H5Y      HAL2     0.900000E-01   1.00800           0
     19187 MEMB     177      SAPE     C36      CTL2    -0.180000       12.0110           0
     19188 MEMB     177      SAPE     H6X      HAL2     0.900000E-01   1.00800           0
     19189 MEMB     177      SAPE     H6Y      HAL2     0.900000E-01   1.00800           0
     19190 MEMB     177      SAPE     C37      CTL2    -0.180000       12.0110           0
     19191 MEMB     177      SAPE     H7X      HAL2     0.900000E-01   1.00800           0
     19192 MEMB     177      SAPE     H7Y      HAL2     0.900000E-01   1.00800           0
     19193 MEMB     177      SAPE     C38      CTL2    -0.180000       12.0110           0
     19194 MEMB     177      SAPE     H8X      HAL2     0.900000E-01   1.00800           0
     19195 MEMB     177      SAPE     H8Y      HAL2     0.900000E-01   1.00800           0
     19196 MEMB     177      SAPE     C39      CTL2    -0.180000       12.0110           0
     19197 MEMB     177      SAPE     H9X      HAL2     0.900000E-01   1.00800           0
     19198 MEMB     177      SAPE     H9Y      HAL2     0.900000E-01   1.00800           0
     19199 MEMB     177      SAPE     C310     CTL2    -0.180000       12.0110           0
     19200 MEMB     177      SAPE     H10X     HAL2     0.900000E-01   1.00800           0
     19201 MEMB     177      SAPE     H10Y     HAL2     0.900000E-01   1.00800           0
     19202 MEMB     177      SAPE     C311     CTL2    -0.180000       12.0110           0
     19203 MEMB     177      SAPE     H11X     HAL2     0.900000E-01   1.00800           0
     19204 MEMB     177      SAPE     H11Y     HAL2     0.900000E-01   1.00800           0
     19205 MEMB     177      SAPE     C312     CTL2    -0.180000       12.0110           0
     19206 MEMB     177      SAPE     H12X     HAL2     0.900000E-01   1.00800           0
     19207 MEMB     177      SAPE     H12Y     HAL2     0.900000E-01   1.00800           0
     19208 MEMB     177      SAPE     C313     CTL2    -0.180000       12.0110           0
     19209 MEMB     177      SAPE     H13X     HAL2     0.900000E-01   1.00800           0
     19210 MEMB     177      SAPE     H13Y     HAL2     0.900000E-01   1.00800           0
     19211 MEMB     177      SAPE     C314     CTL2    -0.180000       12.0110           0
     19212 MEMB     177      SAPE     H14X     HAL2     0.900000E-01   1.00800           0
     19213 MEMB     177      SAPE     H14Y     HAL2     0.900000E-01   1.00800           0
     19214 MEMB     177      SAPE     C315     CTL2    -0.180000       12.0110           0
     19215 MEMB     177      SAPE     H15X     HAL2     0.900000E-01   1.00800           0
     19216 MEMB     177      SAPE     H15Y     HAL2     0.900000E-01   1.00800           0
     19217 MEMB     177      SAPE     C316     CTL2    -0.180000       12.0110           0
     19218 MEMB     177      SAPE     H16X     HAL2     0.900000E-01   1.00800           0
     19219 MEMB     177      SAPE     H16Y     HAL2     0.900000E-01   1.00800           0
     19220 MEMB     177      SAPE     C317     CTL2    -0.180000       12.0110           0
     19221 MEMB     177      SAPE     H17X     HAL2     0.900000E-01   1.00800           0
     19222 MEMB     177      SAPE     H17Y     HAL2     0.900000E-01   1.00800           0
     19223 MEMB     177      SAPE     C318     CTL3    -0.270000       12.0110           0
     19224 MEMB     177      SAPE     H18X     HAL3     0.900000E-01   1.00800           0
     19225 MEMB     177      SAPE     H18Y     HAL3     0.900000E-01   1.00800           0
     19226 MEMB     177      SAPE     H18Z     HAL3     0.900000E-01   1.00800           0
     19227 MEMB     180      SAPE     N        NH3L    -0.300000       14.0070           0
     19228 MEMB     180      SAPE     HN1      HCL      0.330000       1.00800           0
     19229 MEMB     180      SAPE     HN2      HCL      0.330000       1.00800           0
     19230 MEMB     180      SAPE     HN3      HCL      0.330000       1.00800           0
     19231 MEMB     180      SAPE     C12      CTL2     0.130000       12.0110           0
     19232 MEMB     180      SAPE     H12A     HAL2     0.900000E-01   1.00800           0
     19233 MEMB     180      SAPE     H12B     HAL2     0.900000E-01   1.00800           0
     19234 MEMB     180      SAPE     C11      CTL2    -0.800000E-01   12.0110           0
     19235 MEMB     180      SAPE     H11A     HAL2     0.900000E-01   1.00800           0
     19236 MEMB     180      SAPE     H11B     HAL2     0.900000E-01   1.00800           0
     19237 MEMB     180      SAPE     P        PL       1.500000       30.9740           0
     19238 MEMB     180      SAPE     O13      O2L     -0.780000       15.9994           0
     19239 MEMB     180      SAPE     O14      O2L     -0.780000       15.9994           0
     19240 MEMB     180      SAPE     O12      OSLP    -0.570000       15.9994           0
     19241 MEMB     180      SAPE     O11      OSLP    -0.570000       15.9994           0
     19242 MEMB     180      SAPE     C1       CTL2    -0.800000E-01   12.0110           0
     19243 MEMB     180      SAPE     HA       HAL2     0.900000E-01   1.00800           0
     19244 MEMB     180      SAPE     HB       HAL2     0.900000E-01   1.00800           0
     19245 MEMB     180      SAPE     C2       CTL1     0.170000       12.0110           0
     19246 MEMB     180      SAPE     HS       HAL1     0.900000E-01   1.00800           0
     19247 MEMB     180      SAPE     O21      OSL     -0.490000       15.9994           0
     19248 MEMB     180      SAPE     C21      CL       0.900000       12.0110           0
     19249 MEMB     180      SAPE     O22      OBL     -0.630000       15.9994           0
     19250 MEMB     180      SAPE     C22      CTL2    -0.220000       12.0110           0
     19251 MEMB     180      SAPE     H2R      HAL2     0.900000E-01   1.00800           0
     19252 MEMB     180      SAPE     H2S      HAL2     0.900000E-01   1.00800           0
     19253 MEMB     180      SAPE     C3       CTL2     0.800000E-01   12.0110           0
     19254 MEMB     180      SAPE     HX       HAL2     0.900000E-01   1.00800           0
     19255 MEMB     180      SAPE     HY       HAL2     0.900000E-01   1.00800           0
     19256 MEMB     180      SAPE     O31      OSL     -0.490000       15.9994           0
     19257 MEMB     180      SAPE     C31      CL       0.900000       12.0110           0
     19258 MEMB     180      SAPE     O32      OBL     -0.630000       15.9994           0
     19259 MEMB     180      SAPE     C32      CTL2    -0.220000       12.0110           0
     19260 MEMB     180      SAPE     H2X      HAL2     0.900000E-01   1.00800           0
     19261 MEMB     180      SAPE     H2Y      HAL2     0.900000E-01   1.00800           0
     19262 MEMB     180      SAPE     C23      CTL2    -0.180000       12.0110           0
     19263 MEMB     180      SAPE     H3R      HAL2     0.900000E-01   1.00800           0
     19264 MEMB     180      SAPE     H3S      HAL2     0.900000E-01   1.00800           0
     19265 MEMB     180      SAPE     C24      CTL2    -0.180000       12.0110           0
     19266 MEMB     180      SAPE     H4R      HAL2     0.900000E-01   1.00800           0
     19267 MEMB     180      SAPE     H4S      HAL2     0.900000E-01   1.00800           0
     19268 MEMB     180      SAPE     C25      CEL1    -0.150000       12.0110           0
     19269 MEMB     180      SAPE     H5R      HEL1     0.150000       1.00800           0
     19270 MEMB     180      SAPE     C26      CEL1    -0.150000       12.0110           0
     19271 MEMB     180      SAPE     H6R      HEL1     0.150000       1.00800           0
     19272 MEMB     180      SAPE     C27      CTL2    -0.180000       12.0110           0
     19273 MEMB     180      SAPE     H7R      HAL2     0.900000E-01   1.00800           0
     19274 MEMB     180      SAPE     H7S      HAL2     0.900000E-01   1.00800           0
     19275 MEMB     180      SAPE     C28      CEL1    -0.150000       12.0110           0
     19276 MEMB     180      SAPE     H8R      HEL1     0.150000       1.00800           0
     19277 MEMB     180      SAPE     C29      CEL1    -0.150000       12.0110           0
     19278 MEMB     180      SAPE     H9R      HEL1     0.150000       1.00800           0
     19279 MEMB     180      SAPE     C210     CTL2    -0.180000       12.0110           0
     19280 MEMB     180      SAPE     H10R     HAL2     0.900000E-01   1.00800           0
     19281 MEMB     180      SAPE     H10S     HAL2     0.900000E-01   1.00800           0
     19282 MEMB     180      SAPE     C211     CEL1    -0.150000       12.0110           0
     19283 MEMB     180      SAPE     H11R     HEL1     0.150000       1.00800           0
     19284 MEMB     180      SAPE     C212     CEL1    -0.150000       12.0110           0
     19285 MEMB     180      SAPE     H12R     HEL1     0.150000       1.00800           0
     19286 MEMB     180      SAPE     C213     CTL2    -0.180000       12.0110           0
     19287 MEMB     180      SAPE     H13R     HAL2     0.900000E-01   1.00800           0
     19288 MEMB     180      SAPE     H13S     HAL2     0.900000E-01   1.00800           0
     19289 MEMB     180      SAPE     C214     CEL1    -0.150000       12.0110           0
     19290 MEMB     180      SAPE     H14R     HEL1     0.150000       1.00800           0
     19291 MEMB     180      SAPE     C215     CEL1    -0.150000       12.0110           0
     19292 MEMB     180      SAPE     H15R     HEL1     0.150000       1.00800           0
     19293 MEMB     180      SAPE     C216     CTL2    -0.180000       12.0110           0
     19294 MEMB     180      SAPE     H16R     HAL2     0.900000E-01   1.00800           0
     19295 MEMB     180      SAPE     H16S     HAL2     0.900000E-01   1.00800           0
     19296 MEMB     180      SAPE     C217     CTL2    -0.180000       12.0110           0
     19297 MEMB     180      SAPE     H17R     HAL2     0.900000E-01   1.00800           0
     19298 MEMB     180      SAPE     H17S     HAL2     0.900000E-01   1.00800           0
     19299 MEMB     180      SAPE     C218     CTL2    -0.180000       12.0110           0
     19300 MEMB     180      SAPE     H18R     HAL2     0.900000E-01   1.00800           0
     19301 MEMB     180      SAPE     H18S     HAL2     0.900000E-01   1.00800           0
     19302 MEMB     180      SAPE     C219     CTL2    -0.180000       12.0110           0
     19303 MEMB     180      SAPE     H19R     HAL2     0.900000E-01   1.00800           0
     19304 MEMB     180      SAPE     H19S     HAL2     0.900000E-01   1.00800           0
     19305 MEMB     180      SAPE     C220     CTL3    -0.270000       12.0110           0
     19306 MEMB     180      SAPE     H20R     HAL3     0.900000E-01   1.00800           0
     19307 MEMB     180      SAPE     H20S     HAL3     0.900000E-01   1.00800           0
     19308 MEMB     180      SAPE     H20T     HAL3     0.900000E-01   1.00800           0
     19309 MEMB     180      SAPE     C33      CTL2    -0.180000       12.0110           0
     19310 MEMB     180      SAPE     H3X      HAL2     0.900000E-01   1.00800           0
     19311 MEMB     180      SAPE     H3Y      HAL2     0.900000E-01   1.00800           0
     19312 MEMB     180      SAPE     C34      CTL2    -0.180000       12.0110           0
     19313 MEMB     180      SAPE     H4X      HAL2     0.900000E-01   1.00800           0
     19314 MEMB     180      SAPE     H4Y      HAL2     0.900000E-01   1.00800           0
     19315 MEMB     180      SAPE     C35      CTL2    -0.180000       12.0110           0
     19316 MEMB     180      SAPE     H5X      HAL2     0.900000E-01   1.00800           0
     19317 MEMB     180      SAPE     H5Y      HAL2     0.900000E-01   1.00800           0
     19318 MEMB     180      SAPE     C36      CTL2    -0.180000       12.0110           0
     19319 MEMB     180      SAPE     H6X      HAL2     0.900000E-01   1.00800           0
     19320 MEMB     180      SAPE     H6Y      HAL2     0.900000E-01   1.00800           0
     19321 MEMB     180      SAPE     C37      CTL2    -0.180000       12.0110           0
     19322 MEMB     180      SAPE     H7X      HAL2     0.900000E-01   1.00800           0
     19323 MEMB     180      SAPE     H7Y      HAL2     0.900000E-01   1.00800           0
     19324 MEMB     180      SAPE     C38      CTL2    -0.180000       12.0110           0
     19325 MEMB     180      SAPE     H8X      HAL2     0.900000E-01   1.00800           0
     19326 MEMB     180      SAPE     H8Y      HAL2     0.900000E-01   1.00800           0
     19327 MEMB     180      SAPE     C39      CTL2    -0.180000       12.0110           0
     19328 MEMB     180      SAPE     H9X      HAL2     0.900000E-01   1.00800           0
     19329 MEMB     180      SAPE     H9Y      HAL2     0.900000E-01   1.00800           0
     19330 MEMB     180      SAPE     C310     CTL2    -0.180000       12.0110           0
     19331 MEMB     180      SAPE     H10X     HAL2     0.900000E-01   1.00800           0
     19332 MEMB     180      SAPE     H10Y     HAL2     0.900000E-01   1.00800           0
     19333 MEMB     180      SAPE     C311     CTL2    -0.180000       12.0110           0
     19334 MEMB     180      SAPE     H11X     HAL2     0.900000E-01   1.00800           0
     19335 MEMB     180      SAPE     H11Y     HAL2     0.900000E-01   1.00800           0
     19336 MEMB     180      SAPE     C312     CTL2    -0.180000       12.0110           0
     19337 MEMB     180      SAPE     H12X     HAL2     0.900000E-01   1.00800           0
     19338 MEMB     180      SAPE     H12Y     HAL2     0.900000E-01   1.00800           0
     19339 MEMB     180      SAPE     C313     CTL2    -0.180000       12.0110           0
     19340 MEMB     180      SAPE     H13X     HAL2     0.900000E-01   1.00800           0
     19341 MEMB     180      SAPE     H13Y     HAL2     0.900000E-01   1.00800           0
     19342 MEMB     180      SAPE     C314     CTL2    -0.180000       12.0110           0
     19343 MEMB     180      SAPE     H14X     HAL2     0.900000E-01   1.00800           0
     19344 MEMB     180      SAPE     H14Y     HAL2     0.900000E-01   1.00800           0
     19345 MEMB     180      SAPE     C315     CTL2    -0.180000       12.0110           0
     19346 MEMB     180      SAPE     H15X     HAL2     0.900000E-01   1.00800           0
     19347 MEMB     180      SAPE     H15Y     HAL2     0.900000E-01   1.00800           0
     19348 MEMB     180      SAPE     C316     CTL2    -0.180000       12.0110           0
     19349 MEMB     180      SAPE     H16X     HAL2     0.900000E-01   1.00800           0
     19350 MEMB     180      SAPE     H16Y     HAL2     0.900000E-01   1.00800           0
     19351 MEMB     180      SAPE     C317     CTL2    -0.180000       12.0110           0
     19352 MEMB     180      SAPE     H17X     HAL2     0.900000E-01   1.00800           0
     19353 MEMB     180      SAPE     H17Y     HAL2     0.900000E-01   1.00800           0
     19354 MEMB     180      SAPE     C318     CTL3    -0.270000       12.0110           0
     19355 MEMB     180      SAPE     H18X     HAL3     0.900000E-01   1.00800           0
     19356 MEMB     180      SAPE     H18Y     HAL3     0.900000E-01   1.00800           0
     19357 MEMB     180      SAPE     H18Z     HAL3     0.900000E-01   1.00800           0
     19358 MEMB     185      SAPE     N        NH3L    -0.300000       14.0070           0
     19359 MEMB     185      SAPE     HN1      HCL      0.330000       1.00800           0
     19360 MEMB     185      SAPE     HN2      HCL      0.330000       1.00800           0
     19361 MEMB     185      SAPE     HN3      HCL      0.330000       1.00800           0
     19362 MEMB     185      SAPE     C12      CTL2     0.130000       12.0110           0
     19363 MEMB     185      SAPE     H12A     HAL2     0.900000E-01   1.00800           0
     19364 MEMB     185      SAPE     H12B     HAL2     0.900000E-01   1.00800           0
     19365 MEMB     185      SAPE     C11      CTL2    -0.800000E-01   12.0110           0
     19366 MEMB     185      SAPE     H11A     HAL2     0.900000E-01   1.00800           0
     19367 MEMB     185      SAPE     H11B     HAL2     0.900000E-01   1.00800           0
     19368 MEMB     185      SAPE     P        PL       1.500000       30.9740           0
     19369 MEMB     185      SAPE     O13      O2L     -0.780000       15.9994           0
     19370 MEMB     185      SAPE     O14      O2L     -0.780000       15.9994           0
     19371 MEMB     185      SAPE     O12      OSLP    -0.570000       15.9994           0
     19372 MEMB     185      SAPE     O11      OSLP    -0.570000       15.9994           0
     19373 MEMB     185      SAPE     C1       CTL2    -0.800000E-01   12.0110           0
     19374 MEMB     185      SAPE     HA       HAL2     0.900000E-01   1.00800           0
     19375 MEMB     185      SAPE     HB       HAL2     0.900000E-01   1.00800           0
     19376 MEMB     185      SAPE     C2       CTL1     0.170000       12.0110           0
     19377 MEMB     185      SAPE     HS       HAL1     0.900000E-01   1.00800           0
     19378 MEMB     185      SAPE     O21      OSL     -0.490000       15.9994           0
     19379 MEMB     185      SAPE     C21      CL       0.900000       12.0110           0
     19380 MEMB     185      SAPE     O22      OBL     -0.630000       15.9994           0
     19381 MEMB     185      SAPE     C22      CTL2    -0.220000       12.0110           0
     19382 MEMB     185      SAPE     H2R      HAL2     0.900000E-01   1.00800           0
     19383 MEMB     185      SAPE     H2S      HAL2     0.900000E-01   1.00800           0
     19384 MEMB     185      SAPE     C3       CTL2     0.800000E-01   12.0110           0
     19385 MEMB     185      SAPE     HX       HAL2     0.900000E-01   1.00800           0
     19386 MEMB     185      SAPE     HY       HAL2     0.900000E-01   1.00800           0
     19387 MEMB     185      SAPE     O31      OSL     -0.490000       15.9994           0
     19388 MEMB     185      SAPE     C31      CL       0.900000       12.0110           0
     19389 MEMB     185      SAPE     O32      OBL     -0.630000       15.9994           0
     19390 MEMB     185      SAPE     C32      CTL2    -0.220000       12.0110           0
     19391 MEMB     185      SAPE     H2X      HAL2     0.900000E-01   1.00800           0
     19392 MEMB     185      SAPE     H2Y      HAL2     0.900000E-01   1.00800           0
     19393 MEMB     185      SAPE     C23      CTL2    -0.180000       12.0110           0
     19394 MEMB     185      SAPE     H3R      HAL2     0.900000E-01   1.00800           0
     19395 MEMB     185      SAPE     H3S      HAL2     0.900000E-01   1.00800           0
     19396 MEMB     185      SAPE     C24      CTL2    -0.180000       12.0110           0
     19397 MEMB     185      SAPE     H4R      HAL2     0.900000E-01   1.00800           0
     19398 MEMB     185      SAPE     H4S      HAL2     0.900000E-01   1.00800           0
     19399 MEMB     185      SAPE     C25      CEL1    -0.150000       12.0110           0
     19400 MEMB     185      SAPE     H5R      HEL1     0.150000       1.00800           0
     19401 MEMB     185      SAPE     C26      CEL1    -0.150000       12.0110           0
     19402 MEMB     185      SAPE     H6R      HEL1     0.150000       1.00800           0
     19403 MEMB     185      SAPE     C27      CTL2    -0.180000       12.0110           0
     19404 MEMB     185      SAPE     H7R      HAL2     0.900000E-01   1.00800           0
     19405 MEMB     185      SAPE     H7S      HAL2     0.900000E-01   1.00800           0
     19406 MEMB     185      SAPE     C28      CEL1    -0.150000       12.0110           0
     19407 MEMB     185      SAPE     H8R      HEL1     0.150000       1.00800           0
     19408 MEMB     185      SAPE     C29      CEL1    -0.150000       12.0110           0
     19409 MEMB     185      SAPE     H9R      HEL1     0.150000       1.00800           0
     19410 MEMB     185      SAPE     C210     CTL2    -0.180000       12.0110           0
     19411 MEMB     185      SAPE     H10R     HAL2     0.900000E-01   1.00800           0
     19412 MEMB     185      SAPE     H10S     HAL2     0.900000E-01   1.00800           0
     19413 MEMB     185      SAPE     C211     CEL1    -0.150000       12.0110           0
     19414 MEMB     185      SAPE     H11R     HEL1     0.150000       1.00800           0
     19415 MEMB     185      SAPE     C212     CEL1    -0.150000       12.0110           0
     19416 MEMB     185      SAPE     H12R     HEL1     0.150000       1.00800           0
     19417 MEMB     185      SAPE     C213     CTL2    -0.180000       12.0110           0
     19418 MEMB     185      SAPE     H13R     HAL2     0.900000E-01   1.00800           0
     19419 MEMB     185      SAPE     H13S     HAL2     0.900000E-01   1.00800           0
     19420 MEMB     185      SAPE     C214     CEL1    -0.150000       12.0110           0
     19421 MEMB     185      SAPE     H14R     HEL1     0.150000       1.00800           0
     19422 MEMB     185      SAPE     C215     CEL1    -0.150000       12.0110           0
     19423 MEMB     185      SAPE     H15R     HEL1     0.150000       1.00800           0
     19424 MEMB     185      SAPE     C216     CTL2    -0.180000       12.0110           0
     19425 MEMB     185      SAPE     H16R     HAL2     0.900000E-01   1.00800           0
     19426 MEMB     185      SAPE     H16S     HAL2     0.900000E-01   1.00800           0
     19427 MEMB     185      SAPE     C217     CTL2    -0.180000       12.0110           0
     19428 MEMB     185      SAPE     H17R     HAL2     0.900000E-01   1.00800           0
     19429 MEMB     185      SAPE     H17S     HAL2     0.900000E-01   1.00800           0
     19430 MEMB     185      SAPE     C218     CTL2    -0.180000       12.0110           0
     19431 MEMB     185      SAPE     H18R     HAL2     0.900000E-01   1.00800           0
     19432 MEMB     185      SAPE     H18S     HAL2     0.900000E-01   1.00800           0
     19433 MEMB     185      SAPE     C219     CTL2    -0.180000       12.0110           0
     19434 MEMB     185      SAPE     H19R     HAL2     0.900000E-01   1.00800           0
     19435 MEMB     185      SAPE     H19S     HAL2     0.900000E-01   1.00800           0
     19436 MEMB     185      SAPE     C220     CTL3    -0.270000       12.0110           0
     19437 MEMB     185      SAPE     H20R     HAL3     0.900000E-01   1.00800           0
     19438 MEMB     185      SAPE     H20S     HAL3     0.900000E-01   1.00800           0
     19439 MEMB     185      SAPE     H20T     HAL3     0.900000E-01   1.00800           0
     19440 MEMB     185      SAPE     C33      CTL2    -0.180000       12.0110           0
     19441 MEMB     185      SAPE     H3X      HAL2     0.900000E-01   1.00800           0
     19442 MEMB     185      SAPE     H3Y      HAL2     0.900000E-01   1.00800           0
     19443 MEMB     185      SAPE     C34      CTL2    -0.180000       12.0110           0
     19444 MEMB     185      SAPE     H4X      HAL2     0.900000E-01   1.00800           0
     19445 MEMB     185      SAPE     H4Y      HAL2     0.900000E-01   1.00800           0
     19446 MEMB     185      SAPE     C35      CTL2    -0.180000       12.0110           0
     19447 MEMB     185      SAPE     H5X      HAL2     0.900000E-01   1.00800           0
     19448 MEMB     185      SAPE     H5Y      HAL2     0.900000E-01   1.00800           0
     19449 MEMB     185      SAPE     C36      CTL2    -0.180000       12.0110           0
     19450 MEMB     185      SAPE     H6X      HAL2     0.900000E-01   1.00800           0
     19451 MEMB     185      SAPE     H6Y      HAL2     0.900000E-01   1.00800           0
     19452 MEMB     185      SAPE     C37      CTL2    -0.180000       12.0110           0
     19453 MEMB     185      SAPE     H7X      HAL2     0.900000E-01   1.00800           0
     19454 MEMB     185      SAPE     H7Y      HAL2     0.900000E-01   1.00800           0
     19455 MEMB     185      SAPE     C38      CTL2    -0.180000       12.0110           0
     19456 MEMB     185      SAPE     H8X      HAL2     0.900000E-01   1.00800           0
     19457 MEMB     185      SAPE     H8Y      HAL2     0.900000E-01   1.00800           0
     19458 MEMB     185      SAPE     C39      CTL2    -0.180000       12.0110           0
     19459 MEMB     185      SAPE     H9X      HAL2     0.900000E-01   1.00800           0
     19460 MEMB     185      SAPE     H9Y      HAL2     0.900000E-01   1.00800           0
     19461 MEMB     185      SAPE     C310     CTL2    -0.180000       12.0110           0
     19462 MEMB     185      SAPE     H10X     HAL2     0.900000E-01   1.00800           0
     19463 MEMB     185      SAPE     H10Y     HAL2     0.900000E-01   1.00800           0
     19464 MEMB     185      SAPE     C311     CTL2    -0.180000       12.0110           0
     19465 MEMB     185      SAPE     H11X     HAL2     0.900000E-01   1.00800           0
     19466 MEMB     185      SAPE     H11Y     HAL2     0.900000E-01   1.00800           0
     19467 MEMB     185      SAPE     C312     CTL2    -0.180000       12.0110           0
     19468 MEMB     185      SAPE     H12X     HAL2     0.900000E-01   1.00800           0
     19469 MEMB     185      SAPE     H12Y     HAL2     0.900000E-01   1.00800           0
     19470 MEMB     185      SAPE     C313     CTL2    -0.180000       12.0110           0
     19471 MEMB     185      SAPE     H13X     HAL2     0.900000E-01   1.00800           0
     19472 MEMB     185      SAPE     H13Y     HAL2     0.900000E-01   1.00800           0
     19473 MEMB     185      SAPE     C314     CTL2    -0.180000       12.0110           0
     19474 MEMB     185      SAPE     H14X     HAL2     0.900000E-01   1.00800           0
     19475 MEMB     185      SAPE     H14Y     HAL2     0.900000E-01   1.00800           0
     19476 MEMB     185      SAPE     C315     CTL2    -0.180000       12.0110           0
     19477 MEMB     185      SAPE     H15X     HAL2     0.900000E-01   1.00800           0
     19478 MEMB     185      SAPE     H15Y     HAL2     0.900000E-01   1.00800           0
     19479 MEMB     185      SAPE     C316     CTL2    -0.180000       12.0110           0
     19480 MEMB     185      SAPE     H16X     HAL2     0.900000E-01   1.00800           0
     19481 MEMB     185      SAPE     H16Y     HAL2     0.900000E-01   1.00800           0
     19482 MEMB     185      SAPE     C317     CTL2    -0.180000       12.0110           0
     19483 MEMB     185      SAPE     H17X     HAL2     0.900000E-01   1.00800           0
     19484 MEMB     185      SAPE     H17Y     HAL2     0.900000E-01   1.00800           0
     19485 MEMB     185      SAPE     C318     CTL3    -0.270000       12.0110           0
     19486 MEMB     185      SAPE     H18X     HAL3     0.900000E-01   1.00800           0
     19487 MEMB     185      SAPE     H18Y     HAL3     0.900000E-01   1.00800           0
     19488 MEMB     185      SAPE     H18Z     HAL3     0.900000E-01   1.00800           0
     19489 MEMB     32       SLPC     N        NTL     -0.600000       14.0070           0
     19490 MEMB     32       SLPC     C13      CTL5    -0.350000       12.0110           0
     19491 MEMB     32       SLPC     H13A     HL       0.250000       1.00800           0
     19492 MEMB     32       SLPC     H13B     HL       0.250000       1.00800           0
     19493 MEMB     32       SLPC     H13C     HL       0.250000       1.00800           0
     19494 MEMB     32       SLPC     C14      CTL5    -0.350000       12.0110           0
     19495 MEMB     32       SLPC     H14A     HL       0.250000       1.00800           0
     19496 MEMB     32       SLPC     H14B     HL       0.250000       1.00800           0
     19497 MEMB     32       SLPC     H14C     HL       0.250000       1.00800           0
     19498 MEMB     32       SLPC     C15      CTL5    -0.350000       12.0110           0
     19499 MEMB     32       SLPC     H15A     HL       0.250000       1.00800           0
     19500 MEMB     32       SLPC     H15B     HL       0.250000       1.00800           0
     19501 MEMB     32       SLPC     H15C     HL       0.250000       1.00800           0
     19502 MEMB     32       SLPC     C12      CTL2    -0.100000       12.0110           0
     19503 MEMB     32       SLPC     H12A     HL       0.250000       1.00800           0
     19504 MEMB     32       SLPC     H12B     HL       0.250000       1.00800           0
     19505 MEMB     32       SLPC     C11      CTL2    -0.800000E-01   12.0110           0
     19506 MEMB     32       SLPC     H11A     HAL2     0.900000E-01   1.00800           0
     19507 MEMB     32       SLPC     H11B     HAL2     0.900000E-01   1.00800           0
     19508 MEMB     32       SLPC     P        PL       1.500000       30.9740           0
     19509 MEMB     32       SLPC     O13      O2L     -0.780000       15.9994           0
     19510 MEMB     32       SLPC     O14      O2L     -0.780000       15.9994           0
     19511 MEMB     32       SLPC     O12      OSLP    -0.570000       15.9994           0
     19512 MEMB     32       SLPC     O11      OSLP    -0.570000       15.9994           0
     19513 MEMB     32       SLPC     C1       CTL2    -0.800000E-01   12.0110           0
     19514 MEMB     32       SLPC     HA       HAL2     0.900000E-01   1.00800           0
     19515 MEMB     32       SLPC     HB       HAL2     0.900000E-01   1.00800           0
     19516 MEMB     32       SLPC     C2       CTL1     0.170000       12.0110           0
     19517 MEMB     32       SLPC     HS       HAL1     0.900000E-01   1.00800           0
     19518 MEMB     32       SLPC     O21      OSL     -0.490000       15.9994           0
     19519 MEMB     32       SLPC     C21      CL       0.900000       12.0110           0
     19520 MEMB     32       SLPC     O22      OBL     -0.630000       15.9994           0
     19521 MEMB     32       SLPC     C22      CTL2    -0.220000       12.0110           0
     19522 MEMB     32       SLPC     H2R      HAL2     0.900000E-01   1.00800           0
     19523 MEMB     32       SLPC     H2S      HAL2     0.900000E-01   1.00800           0
     19524 MEMB     32       SLPC     C3       CTL2     0.800000E-01   12.0110           0
     19525 MEMB     32       SLPC     HX       HAL2     0.900000E-01   1.00800           0
     19526 MEMB     32       SLPC     HY       HAL2     0.900000E-01   1.00800           0
     19527 MEMB     32       SLPC     O31      OSL     -0.490000       15.9994           0
     19528 MEMB     32       SLPC     C31      CL       0.900000       12.0110           0
     19529 MEMB     32       SLPC     O32      OBL     -0.630000       15.9994           0
     19530 MEMB     32       SLPC     C32      CTL2    -0.220000       12.0110           0
     19531 MEMB     32       SLPC     H2X      HAL2     0.900000E-01   1.00800           0
     19532 MEMB     32       SLPC     H2Y      HAL2     0.900000E-01   1.00800           0
     19533 MEMB     32       SLPC     C23      CTL2    -0.180000       12.0110           0
     19534 MEMB     32       SLPC     H3R      HAL2     0.900000E-01   1.00800           0
     19535 MEMB     32       SLPC     H3S      HAL2     0.900000E-01   1.00800           0
     19536 MEMB     32       SLPC     C24      CTL2    -0.180000       12.0110           0
     19537 MEMB     32       SLPC     H4R      HAL2     0.900000E-01   1.00800           0
     19538 MEMB     32       SLPC     H4S      HAL2     0.900000E-01   1.00800           0
     19539 MEMB     32       SLPC     C25      CTL2    -0.180000       12.0110           0
     19540 MEMB     32       SLPC     H5R      HAL2     0.900000E-01   1.00800           0
     19541 MEMB     32       SLPC     H5S      HAL2     0.900000E-01   1.00800           0
     19542 MEMB     32       SLPC     C26      CTL2    -0.180000       12.0110           0
     19543 MEMB     32       SLPC     H6R      HAL2     0.900000E-01   1.00800           0
     19544 MEMB     32       SLPC     H6S      HAL2     0.900000E-01   1.00800           0
     19545 MEMB     32       SLPC     C27      CTL2    -0.180000       12.0110           0
     19546 MEMB     32       SLPC     H7R      HAL2     0.900000E-01   1.00800           0
     19547 MEMB     32       SLPC     H7S      HAL2     0.900000E-01   1.00800           0
     19548 MEMB     32       SLPC     C28      CTL2    -0.180000       12.0110           0
     19549 MEMB     32       SLPC     H8R      HAL2     0.900000E-01   1.00800           0
     19550 MEMB     32       SLPC     H8S      HAL2     0.900000E-01   1.00800           0
     19551 MEMB     32       SLPC     C29      CEL1    -0.150000       12.0110           0
     19552 MEMB     32       SLPC     H9R      HEL1     0.150000       1.00800           0
     19553 MEMB     32       SLPC     C210     CEL1    -0.150000       12.0110           0
     19554 MEMB     32       SLPC     H10R     HEL1     0.150000       1.00800           0
     19555 MEMB     32       SLPC     C211     CTL2    -0.180000       12.0110           0
     19556 MEMB     32       SLPC     H11R     HAL2     0.900000E-01   1.00800           0
     19557 MEMB     32       SLPC     H11S     HAL2     0.900000E-01   1.00800           0
     19558 MEMB     32       SLPC     C212     CEL1    -0.150000       12.0110           0
     19559 MEMB     32       SLPC     H12R     HEL1     0.150000       1.00800           0
     19560 MEMB     32       SLPC     C213     CEL1    -0.150000       12.0110           0
     19561 MEMB     32       SLPC     H13R     HEL1     0.150000       1.00800           0
     19562 MEMB     32       SLPC     C214     CTL2    -0.180000       12.0110           0
     19563 MEMB     32       SLPC     H14R     HAL2     0.900000E-01   1.00800           0
     19564 MEMB     32       SLPC     H14S     HAL2     0.900000E-01   1.00800           0
     19565 MEMB     32       SLPC     C215     CTL2    -0.180000       12.0110           0
     19566 MEMB     32       SLPC     H15R     HAL2     0.900000E-01   1.00800           0
     19567 MEMB     32       SLPC     H15S     HAL2     0.900000E-01   1.00800           0
     19568 MEMB     32       SLPC     C216     CTL2    -0.180000       12.0110           0
     19569 MEMB     32       SLPC     H16R     HAL2     0.900000E-01   1.00800           0
     19570 MEMB     32       SLPC     H16S     HAL2     0.900000E-01   1.00800           0
     19571 MEMB     32       SLPC     C217     CTL2    -0.180000       12.0110           0
     19572 MEMB     32       SLPC     H17R     HAL2     0.900000E-01   1.00800           0
     19573 MEMB     32       SLPC     H17S     HAL2     0.900000E-01   1.00800           0
     19574 MEMB     32       SLPC     C218     CTL3    -0.270000       12.0110           0
     19575 MEMB     32       SLPC     H18R     HAL3     0.900000E-01   1.00800           0
     19576 MEMB     32       SLPC     H18S     HAL3     0.900000E-01   1.00800           0
     19577 MEMB     32       SLPC     H18T     HAL3     0.900000E-01   1.00800           0
     19578 MEMB     32       SLPC     C33      CTL2    -0.180000       12.0110           0
     19579 MEMB     32       SLPC     H3X      HAL2     0.900000E-01   1.00800           0
     19580 MEMB     32       SLPC     H3Y      HAL2     0.900000E-01   1.00800           0
     19581 MEMB     32       SLPC     C34      CTL2    -0.180000       12.0110           0
     19582 MEMB     32       SLPC     H4X      HAL2     0.900000E-01   1.00800           0
     19583 MEMB     32       SLPC     H4Y      HAL2     0.900000E-01   1.00800           0
     19584 MEMB     32       SLPC     C35      CTL2    -0.180000       12.0110           0
     19585 MEMB     32       SLPC     H5X      HAL2     0.900000E-01   1.00800           0
     19586 MEMB     32       SLPC     H5Y      HAL2     0.900000E-01   1.00800           0
     19587 MEMB     32       SLPC     C36      CTL2    -0.180000       12.0110           0
     19588 MEMB     32       SLPC     H6X      HAL2     0.900000E-01   1.00800           0
     19589 MEMB     32       SLPC     H6Y      HAL2     0.900000E-01   1.00800           0
     19590 MEMB     32       SLPC     C37      CTL2    -0.180000       12.0110           0
     19591 MEMB     32       SLPC     H7X      HAL2     0.900000E-01   1.00800           0
     19592 MEMB     32       SLPC     H7Y      HAL2     0.900000E-01   1.00800           0
     19593 MEMB     32       SLPC     C38      CTL2    -0.180000       12.0110           0
     19594 MEMB     32       SLPC     H8X      HAL2     0.900000E-01   1.00800           0
     19595 MEMB     32       SLPC     H8Y      HAL2     0.900000E-01   1.00800           0
     19596 MEMB     32       SLPC     C39      CTL2    -0.180000       12.0110           0
     19597 MEMB     32       SLPC     H9X      HAL2     0.900000E-01   1.00800           0
     19598 MEMB     32       SLPC     H9Y      HAL2     0.900000E-01   1.00800           0
     19599 MEMB     32       SLPC     C310     CTL2    -0.180000       12.0110           0
     19600 MEMB     32       SLPC     H10X     HAL2     0.900000E-01   1.00800           0
     19601 MEMB     32       SLPC     H10Y     HAL2     0.900000E-01   1.00800           0
     19602 MEMB     32       SLPC     C311     CTL2    -0.180000       12.0110           0
     19603 MEMB     32       SLPC     H11X     HAL2     0.900000E-01   1.00800           0
     19604 MEMB     32       SLPC     H11Y     HAL2     0.900000E-01   1.00800           0
     19605 MEMB     32       SLPC     C312     CTL2    -0.180000       12.0110           0
     19606 MEMB     32       SLPC     H12X     HAL2     0.900000E-01   1.00800           0
     19607 MEMB     32       SLPC     H12Y     HAL2     0.900000E-01   1.00800           0
     19608 MEMB     32       SLPC     C313     CTL2    -0.180000       12.0110           0
     19609 MEMB     32       SLPC     H13X     HAL2     0.900000E-01   1.00800           0
     19610 MEMB     32       SLPC     H13Y     HAL2     0.900000E-01   1.00800           0
     19611 MEMB     32       SLPC     C314     CTL2    -0.180000       12.0110           0
     19612 MEMB     32       SLPC     H14X     HAL2     0.900000E-01   1.00800           0
     19613 MEMB     32       SLPC     H14Y     HAL2     0.900000E-01   1.00800           0
     19614 MEMB     32       SLPC     C315     CTL2    -0.180000       12.0110           0
     19615 MEMB     32       SLPC     H15X     HAL2     0.900000E-01   1.00800           0
     19616 MEMB     32       SLPC     H15Y     HAL2     0.900000E-01   1.00800           0
     19617 MEMB     32       SLPC     C316     CTL2    -0.180000       12.0110           0
     19618 MEMB     32       SLPC     H16X     HAL2     0.900000E-01   1.00800           0
     19619 MEMB     32       SLPC     H16Y     HAL2     0.900000E-01   1.00800           0
     19620 MEMB     32       SLPC     C317     CTL2    -0.180000       12.0110           0
     19621 MEMB     32       SLPC     H17X     HAL2     0.900000E-01   1.00800           0
     19622 MEMB     32       SLPC     H17Y     HAL2     0.900000E-01   1.00800           0
     19623 MEMB     32       SLPC     C318     CTL3    -0.270000       12.0110           0
     19624 MEMB     32       SLPC     H18X     HAL3     0.900000E-01   1.00800           0
     19625 MEMB     32       SLPC     H18Y     HAL3     0.900000E-01   1.00800           0
     19626 MEMB     32       SLPC     H18Z     HAL3     0.900000E-01   1.00800           0
     19627 MEMB     45       SLPC     N        NTL     -0.600000       14.0070           0
     19628 MEMB     45       SLPC     C13      CTL5    -0.350000       12.0110           0
     19629 MEMB     45       SLPC     H13A     HL       0.250000       1.00800           0
     19630 MEMB     45       SLPC     H13B     HL       0.250000       1.00800           0
     19631 MEMB     45       SLPC     H13C     HL       0.250000       1.00800           0
     19632 MEMB     45       SLPC     C14      CTL5    -0.350000       12.0110           0
     19633 MEMB     45       SLPC     H14A     HL       0.250000       1.00800           0
     19634 MEMB     45       SLPC     H14B     HL       0.250000       1.00800           0
     19635 MEMB     45       SLPC     H14C     HL       0.250000       1.00800           0
     19636 MEMB     45       SLPC     C15      CTL5    -0.350000       12.0110           0
     19637 MEMB     45       SLPC     H15A     HL       0.250000       1.00800           0
     19638 MEMB     45       SLPC     H15B     HL       0.250000       1.00800           0
     19639 MEMB     45       SLPC     H15C     HL       0.250000       1.00800           0
     19640 MEMB     45       SLPC     C12      CTL2    -0.100000       12.0110           0
     19641 MEMB     45       SLPC     H12A     HL       0.250000       1.00800           0
     19642 MEMB     45       SLPC     H12B     HL       0.250000       1.00800           0
     19643 MEMB     45       SLPC     C11      CTL2    -0.800000E-01   12.0110           0
     19644 MEMB     45       SLPC     H11A     HAL2     0.900000E-01   1.00800           0
     19645 MEMB     45       SLPC     H11B     HAL2     0.900000E-01   1.00800           0
     19646 MEMB     45       SLPC     P        PL       1.500000       30.9740           0
     19647 MEMB     45       SLPC     O13      O2L     -0.780000       15.9994           0
     19648 MEMB     45       SLPC     O14      O2L     -0.780000       15.9994           0
     19649 MEMB     45       SLPC     O12      OSLP    -0.570000       15.9994           0
     19650 MEMB     45       SLPC     O11      OSLP    -0.570000       15.9994           0
     19651 MEMB     45       SLPC     C1       CTL2    -0.800000E-01   12.0110           0
     19652 MEMB     45       SLPC     HA       HAL2     0.900000E-01   1.00800           0
     19653 MEMB     45       SLPC     HB       HAL2     0.900000E-01   1.00800           0
     19654 MEMB     45       SLPC     C2       CTL1     0.170000       12.0110           0
     19655 MEMB     45       SLPC     HS       HAL1     0.900000E-01   1.00800           0
     19656 MEMB     45       SLPC     O21      OSL     -0.490000       15.9994           0
     19657 MEMB     45       SLPC     C21      CL       0.900000       12.0110           0
     19658 MEMB     45       SLPC     O22      OBL     -0.630000       15.9994           0
     19659 MEMB     45       SLPC     C22      CTL2    -0.220000       12.0110           0
     19660 MEMB     45       SLPC     H2R      HAL2     0.900000E-01   1.00800           0
     19661 MEMB     45       SLPC     H2S      HAL2     0.900000E-01   1.00800           0
     19662 MEMB     45       SLPC     C3       CTL2     0.800000E-01   12.0110           0
     19663 MEMB     45       SLPC     HX       HAL2     0.900000E-01   1.00800           0
     19664 MEMB     45       SLPC     HY       HAL2     0.900000E-01   1.00800           0
     19665 MEMB     45       SLPC     O31      OSL     -0.490000       15.9994           0
     19666 MEMB     45       SLPC     C31      CL       0.900000       12.0110           0
     19667 MEMB     45       SLPC     O32      OBL     -0.630000       15.9994           0
     19668 MEMB     45       SLPC     C32      CTL2    -0.220000       12.0110           0
     19669 MEMB     45       SLPC     H2X      HAL2     0.900000E-01   1.00800           0
     19670 MEMB     45       SLPC     H2Y      HAL2     0.900000E-01   1.00800           0
     19671 MEMB     45       SLPC     C23      CTL2    -0.180000       12.0110           0
     19672 MEMB     45       SLPC     H3R      HAL2     0.900000E-01   1.00800           0
     19673 MEMB     45       SLPC     H3S      HAL2     0.900000E-01   1.00800           0
     19674 MEMB     45       SLPC     C24      CTL2    -0.180000       12.0110           0
     19675 MEMB     45       SLPC     H4R      HAL2     0.900000E-01   1.00800           0
     19676 MEMB     45       SLPC     H4S      HAL2     0.900000E-01   1.00800           0
     19677 MEMB     45       SLPC     C25      CTL2    -0.180000       12.0110           0
     19678 MEMB     45       SLPC     H5R      HAL2     0.900000E-01   1.00800           0
     19679 MEMB     45       SLPC     H5S      HAL2     0.900000E-01   1.00800           0
     19680 MEMB     45       SLPC     C26      CTL2    -0.180000       12.0110           0
     19681 MEMB     45       SLPC     H6R      HAL2     0.900000E-01   1.00800           0
     19682 MEMB     45       SLPC     H6S      HAL2     0.900000E-01   1.00800           0
     19683 MEMB     45       SLPC     C27      CTL2    -0.180000       12.0110           0
     19684 MEMB     45       SLPC     H7R      HAL2     0.900000E-01   1.00800           0
     19685 MEMB     45       SLPC     H7S      HAL2     0.900000E-01   1.00800           0
     19686 MEMB     45       SLPC     C28      CTL2    -0.180000       12.0110           0
     19687 MEMB     45       SLPC     H8R      HAL2     0.900000E-01   1.00800           0
     19688 MEMB     45       SLPC     H8S      HAL2     0.900000E-01   1.00800           0
     19689 MEMB     45       SLPC     C29      CEL1    -0.150000       12.0110           0
     19690 MEMB     45       SLPC     H9R      HEL1     0.150000       1.00800           0
     19691 MEMB     45       SLPC     C210     CEL1    -0.150000       12.0110           0
     19692 MEMB     45       SLPC     H10R     HEL1     0.150000       1.00800           0
     19693 MEMB     45       SLPC     C211     CTL2    -0.180000       12.0110           0
     19694 MEMB     45       SLPC     H11R     HAL2     0.900000E-01   1.00800           0
     19695 MEMB     45       SLPC     H11S     HAL2     0.900000E-01   1.00800           0
     19696 MEMB     45       SLPC     C212     CEL1    -0.150000       12.0110           0
     19697 MEMB     45       SLPC     H12R     HEL1     0.150000       1.00800           0
     19698 MEMB     45       SLPC     C213     CEL1    -0.150000       12.0110           0
     19699 MEMB     45       SLPC     H13R     HEL1     0.150000       1.00800           0
     19700 MEMB     45       SLPC     C214     CTL2    -0.180000       12.0110           0
     19701 MEMB     45       SLPC     H14R     HAL2     0.900000E-01   1.00800           0
     19702 MEMB     45       SLPC     H14S     HAL2     0.900000E-01   1.00800           0
     19703 MEMB     45       SLPC     C215     CTL2    -0.180000       12.0110           0
     19704 MEMB     45       SLPC     H15R     HAL2     0.900000E-01   1.00800           0
     19705 MEMB     45       SLPC     H15S     HAL2     0.900000E-01   1.00800           0
     19706 MEMB     45       SLPC     C216     CTL2    -0.180000       12.0110           0
     19707 MEMB     45       SLPC     H16R     HAL2     0.900000E-01   1.00800           0
     19708 MEMB     45       SLPC     H16S     HAL2     0.900000E-01   1.00800           0
     19709 MEMB     45       SLPC     C217     CTL2    -0.180000       12.0110           0
     19710 MEMB     45       SLPC     H17R     HAL2     0.900000E-01   1.00800           0
     19711 MEMB     45       SLPC     H17S     HAL2     0.900000E-01   1.00800           0
     19712 MEMB     45       SLPC     C218     CTL3    -0.270000       12.0110           0
     19713 MEMB     45       SLPC     H18R     HAL3     0.900000E-01   1.00800           0
     19714 MEMB     45       SLPC     H18S     HAL3     0.900000E-01   1.00800           0
     19715 MEMB     45       SLPC     H18T     HAL3     0.900000E-01   1.00800           0
     19716 MEMB     45       SLPC     C33      CTL2    -0.180000       12.0110           0
     19717 MEMB     45       SLPC     H3X      HAL2     0.900000E-01   1.00800           0
     19718 MEMB     45       SLPC     H3Y      HAL2     0.900000E-01   1.00800           0
     19719 MEMB     45       SLPC     C34      CTL2    -0.180000       12.0110           0
     19720 MEMB     45       SLPC     H4X      HAL2     0.900000E-01   1.00800           0
     19721 MEMB     45       SLPC     H4Y      HAL2     0.900000E-01   1.00800           0
     19722 MEMB     45       SLPC     C35      CTL2    -0.180000       12.0110           0
     19723 MEMB     45       SLPC     H5X      HAL2     0.900000E-01   1.00800           0
     19724 MEMB     45       SLPC     H5Y      HAL2     0.900000E-01   1.00800           0
     19725 MEMB     45       SLPC     C36      CTL2    -0.180000       12.0110           0
     19726 MEMB     45       SLPC     H6X      HAL2     0.900000E-01   1.00800           0
     19727 MEMB     45       SLPC     H6Y      HAL2     0.900000E-01   1.00800           0
     19728 MEMB     45       SLPC     C37      CTL2    -0.180000       12.0110           0
     19729 MEMB     45       SLPC     H7X      HAL2     0.900000E-01   1.00800           0
     19730 MEMB     45       SLPC     H7Y      HAL2     0.900000E-01   1.00800           0
     19731 MEMB     45       SLPC     C38      CTL2    -0.180000       12.0110           0
     19732 MEMB     45       SLPC     H8X      HAL2     0.900000E-01   1.00800           0
     19733 MEMB     45       SLPC     H8Y      HAL2     0.900000E-01   1.00800           0
     19734 MEMB     45       SLPC     C39      CTL2    -0.180000       12.0110           0
     19735 MEMB     45       SLPC     H9X      HAL2     0.900000E-01   1.00800           0
     19736 MEMB     45       SLPC     H9Y      HAL2     0.900000E-01   1.00800           0
     19737 MEMB     45       SLPC     C310     CTL2    -0.180000       12.0110           0
     19738 MEMB     45       SLPC     H10X     HAL2     0.900000E-01   1.00800           0
     19739 MEMB     45       SLPC     H10Y     HAL2     0.900000E-01   1.00800           0
     19740 MEMB     45       SLPC     C311     CTL2    -0.180000       12.0110           0
     19741 MEMB     45       SLPC     H11X     HAL2     0.900000E-01   1.00800           0
     19742 MEMB     45       SLPC     H11Y     HAL2     0.900000E-01   1.00800           0
     19743 MEMB     45       SLPC     C312     CTL2    -0.180000       12.0110           0
     19744 MEMB     45       SLPC     H12X     HAL2     0.900000E-01   1.00800           0
     19745 MEMB     45       SLPC     H12Y     HAL2     0.900000E-01   1.00800           0
     19746 MEMB     45       SLPC     C313     CTL2    -0.180000       12.0110           0
     19747 MEMB     45       SLPC     H13X     HAL2     0.900000E-01   1.00800           0
     19748 MEMB     45       SLPC     H13Y     HAL2     0.900000E-01   1.00800           0
     19749 MEMB     45       SLPC     C314     CTL2    -0.180000       12.0110           0
     19750 MEMB     45       SLPC     H14X     HAL2     0.900000E-01   1.00800           0
     19751 MEMB     45       SLPC     H14Y     HAL2     0.900000E-01   1.00800           0
     19752 MEMB     45       SLPC     C315     CTL2    -0.180000       12.0110           0
     19753 MEMB     45       SLPC     H15X     HAL2     0.900000E-01   1.00800           0
     19754 MEMB     45       SLPC     H15Y     HAL2     0.900000E-01   1.00800           0
     19755 MEMB     45       SLPC     C316     CTL2    -0.180000       12.0110           0
     19756 MEMB     45       SLPC     H16X     HAL2     0.900000E-01   1.00800           0
     19757 MEMB     45       SLPC     H16Y     HAL2     0.900000E-01   1.00800           0
     19758 MEMB     45       SLPC     C317     CTL2    -0.180000       12.0110           0
     19759 MEMB     45       SLPC     H17X     HAL2     0.900000E-01   1.00800           0
     19760 MEMB     45       SLPC     H17Y     HAL2     0.900000E-01   1.00800           0
     19761 MEMB     45       SLPC     C318     CTL3    -0.270000       12.0110           0
     19762 MEMB     45       SLPC     H18X     HAL3     0.900000E-01   1.00800           0
     19763 MEMB     45       SLPC     H18Y     HAL3     0.900000E-01   1.00800           0
     19764 MEMB     45       SLPC     H18Z     HAL3     0.900000E-01   1.00800           0
     19765 MEMB     57       SLPC     N        NTL     -0.600000       14.0070           0
     19766 MEMB     57       SLPC     C13      CTL5    -0.350000       12.0110           0
     19767 MEMB     57       SLPC     H13A     HL       0.250000       1.00800           0
     19768 MEMB     57       SLPC     H13B     HL       0.250000       1.00800           0
     19769 MEMB     57       SLPC     H13C     HL       0.250000       1.00800           0
     19770 MEMB     57       SLPC     C14      CTL5    -0.350000       12.0110           0
     19771 MEMB     57       SLPC     H14A     HL       0.250000       1.00800           0
     19772 MEMB     57       SLPC     H14B     HL       0.250000       1.00800           0
     19773 MEMB     57       SLPC     H14C     HL       0.250000       1.00800           0
     19774 MEMB     57       SLPC     C15      CTL5    -0.350000       12.0110           0
     19775 MEMB     57       SLPC     H15A     HL       0.250000       1.00800           0
     19776 MEMB     57       SLPC     H15B     HL       0.250000       1.00800           0
     19777 MEMB     57       SLPC     H15C     HL       0.250000       1.00800           0
     19778 MEMB     57       SLPC     C12      CTL2    -0.100000       12.0110           0
     19779 MEMB     57       SLPC     H12A     HL       0.250000       1.00800           0
     19780 MEMB     57       SLPC     H12B     HL       0.250000       1.00800           0
     19781 MEMB     57       SLPC     C11      CTL2    -0.800000E-01   12.0110           0
     19782 MEMB     57       SLPC     H11A     HAL2     0.900000E-01   1.00800           0
     19783 MEMB     57       SLPC     H11B     HAL2     0.900000E-01   1.00800           0
     19784 MEMB     57       SLPC     P        PL       1.500000       30.9740           0
     19785 MEMB     57       SLPC     O13      O2L     -0.780000       15.9994           0
     19786 MEMB     57       SLPC     O14      O2L     -0.780000       15.9994           0
     19787 MEMB     57       SLPC     O12      OSLP    -0.570000       15.9994           0
     19788 MEMB     57       SLPC     O11      OSLP    -0.570000       15.9994           0
     19789 MEMB     57       SLPC     C1       CTL2    -0.800000E-01   12.0110           0
     19790 MEMB     57       SLPC     HA       HAL2     0.900000E-01   1.00800           0
     19791 MEMB     57       SLPC     HB       HAL2     0.900000E-01   1.00800           0
     19792 MEMB     57       SLPC     C2       CTL1     0.170000       12.0110           0
     19793 MEMB     57       SLPC     HS       HAL1     0.900000E-01   1.00800           0
     19794 MEMB     57       SLPC     O21      OSL     -0.490000       15.9994           0
     19795 MEMB     57       SLPC     C21      CL       0.900000       12.0110           0
     19796 MEMB     57       SLPC     O22      OBL     -0.630000       15.9994           0
     19797 MEMB     57       SLPC     C22      CTL2    -0.220000       12.0110           0
     19798 MEMB     57       SLPC     H2R      HAL2     0.900000E-01   1.00800           0
     19799 MEMB     57       SLPC     H2S      HAL2     0.900000E-01   1.00800           0
     19800 MEMB     57       SLPC     C3       CTL2     0.800000E-01   12.0110           0
     19801 MEMB     57       SLPC     HX       HAL2     0.900000E-01   1.00800           0
     19802 MEMB     57       SLPC     HY       HAL2     0.900000E-01   1.00800           0
     19803 MEMB     57       SLPC     O31      OSL     -0.490000       15.9994           0
     19804 MEMB     57       SLPC     C31      CL       0.900000       12.0110           0
     19805 MEMB     57       SLPC     O32      OBL     -0.630000       15.9994           0
     19806 MEMB     57       SLPC     C32      CTL2    -0.220000       12.0110           0
     19807 MEMB     57       SLPC     H2X      HAL2     0.900000E-01   1.00800           0
     19808 MEMB     57       SLPC     H2Y      HAL2     0.900000E-01   1.00800           0
     19809 MEMB     57       SLPC     C23      CTL2    -0.180000       12.0110           0
     19810 MEMB     57       SLPC     H3R      HAL2     0.900000E-01   1.00800           0
     19811 MEMB     57       SLPC     H3S      HAL2     0.900000E-01   1.00800           0
     19812 MEMB     57       SLPC     C24      CTL2    -0.180000       12.0110           0
     19813 MEMB     57       SLPC     H4R      HAL2     0.900000E-01   1.00800           0
     19814 MEMB     57       SLPC     H4S      HAL2     0.900000E-01   1.00800           0
     19815 MEMB     57       SLPC     C25      CTL2    -0.180000       12.0110           0
     19816 MEMB     57       SLPC     H5R      HAL2     0.900000E-01   1.00800           0
     19817 MEMB     57       SLPC     H5S      HAL2     0.900000E-01   1.00800           0
     19818 MEMB     57       SLPC     C26      CTL2    -0.180000       12.0110           0
     19819 MEMB     57       SLPC     H6R      HAL2     0.900000E-01   1.00800           0
     19820 MEMB     57       SLPC     H6S      HAL2     0.900000E-01   1.00800           0
     19821 MEMB     57       SLPC     C27      CTL2    -0.180000       12.0110           0
     19822 MEMB     57       SLPC     H7R      HAL2     0.900000E-01   1.00800           0
     19823 MEMB     57       SLPC     H7S      HAL2     0.900000E-01   1.00800           0
     19824 MEMB     57       SLPC     C28      CTL2    -0.180000       12.0110           0
     19825 MEMB     57       SLPC     H8R      HAL2     0.900000E-01   1.00800           0
     19826 MEMB     57       SLPC     H8S      HAL2     0.900000E-01   1.00800           0
     19827 MEMB     57       SLPC     C29      CEL1    -0.150000       12.0110           0
     19828 MEMB     57       SLPC     H9R      HEL1     0.150000       1.00800           0
     19829 MEMB     57       SLPC     C210     CEL1    -0.150000       12.0110           0
     19830 MEMB     57       SLPC     H10R     HEL1     0.150000       1.00800           0
     19831 MEMB     57       SLPC     C211     CTL2    -0.180000       12.0110           0
     19832 MEMB     57       SLPC     H11R     HAL2     0.900000E-01   1.00800           0
     19833 MEMB     57       SLPC     H11S     HAL2     0.900000E-01   1.00800           0
     19834 MEMB     57       SLPC     C212     CEL1    -0.150000       12.0110           0
     19835 MEMB     57       SLPC     H12R     HEL1     0.150000       1.00800           0
     19836 MEMB     57       SLPC     C213     CEL1    -0.150000       12.0110           0
     19837 MEMB     57       SLPC     H13R     HEL1     0.150000       1.00800           0
     19838 MEMB     57       SLPC     C214     CTL2    -0.180000       12.0110           0
     19839 MEMB     57       SLPC     H14R     HAL2     0.900000E-01   1.00800           0
     19840 MEMB     57       SLPC     H14S     HAL2     0.900000E-01   1.00800           0
     19841 MEMB     57       SLPC     C215     CTL2    -0.180000       12.0110           0
     19842 MEMB     57       SLPC     H15R     HAL2     0.900000E-01   1.00800           0
     19843 MEMB     57       SLPC     H15S     HAL2     0.900000E-01   1.00800           0
     19844 MEMB     57       SLPC     C216     CTL2    -0.180000       12.0110           0
     19845 MEMB     57       SLPC     H16R     HAL2     0.900000E-01   1.00800           0
     19846 MEMB     57       SLPC     H16S     HAL2     0.900000E-01   1.00800           0
     19847 MEMB     57       SLPC     C217     CTL2    -0.180000       12.0110           0
     19848 MEMB     57       SLPC     H17R     HAL2     0.900000E-01   1.00800           0
     19849 MEMB     57       SLPC     H17S     HAL2     0.900000E-01   1.00800           0
     19850 MEMB     57       SLPC     C218     CTL3    -0.270000       12.0110           0
     19851 MEMB     57       SLPC     H18R     HAL3     0.900000E-01   1.00800           0
     19852 MEMB     57       SLPC     H18S     HAL3     0.900000E-01   1.00800           0
     19853 MEMB     57       SLPC     H18T     HAL3     0.900000E-01   1.00800           0
     19854 MEMB     57       SLPC     C33      CTL2    -0.180000       12.0110           0
     19855 MEMB     57       SLPC     H3X      HAL2     0.900000E-01   1.00800           0
     19856 MEMB     57       SLPC     H3Y      HAL2     0.900000E-01   1.00800           0
     19857 MEMB     57       SLPC     C34      CTL2    -0.180000       12.0110           0
     19858 MEMB     57       SLPC     H4X      HAL2     0.900000E-01   1.00800           0
     19859 MEMB     57       SLPC     H4Y      HAL2     0.900000E-01   1.00800           0
     19860 MEMB     57       SLPC     C35      CTL2    -0.180000       12.0110           0
     19861 MEMB     57       SLPC     H5X      HAL2     0.900000E-01   1.00800           0
     19862 MEMB     57       SLPC     H5Y      HAL2     0.900000E-01   1.00800           0
     19863 MEMB     57       SLPC     C36      CTL2    -0.180000       12.0110           0
     19864 MEMB     57       SLPC     H6X      HAL2     0.900000E-01   1.00800           0
     19865 MEMB     57       SLPC     H6Y      HAL2     0.900000E-01   1.00800           0
     19866 MEMB     57       SLPC     C37      CTL2    -0.180000       12.0110           0
     19867 MEMB     57       SLPC     H7X      HAL2     0.900000E-01   1.00800           0
     19868 MEMB     57       SLPC     H7Y      HAL2     0.900000E-01   1.00800           0
     19869 MEMB     57       SLPC     C38      CTL2    -0.180000       12.0110           0
     19870 MEMB     57       SLPC     H8X      HAL2     0.900000E-01   1.00800           0
     19871 MEMB     57       SLPC     H8Y      HAL2     0.900000E-01   1.00800           0
     19872 MEMB     57       SLPC     C39      CTL2    -0.180000       12.0110           0
     19873 MEMB     57       SLPC     H9X      HAL2     0.900000E-01   1.00800           0
     19874 MEMB     57       SLPC     H9Y      HAL2     0.900000E-01   1.00800           0
     19875 MEMB     57       SLPC     C310     CTL2    -0.180000       12.0110           0
     19876 MEMB     57       SLPC     H10X     HAL2     0.900000E-01   1.00800           0
     19877 MEMB     57       SLPC     H10Y     HAL2     0.900000E-01   1.00800           0
     19878 MEMB     57       SLPC     C311     CTL2    -0.180000       12.0110           0
     19879 MEMB     57       SLPC     H11X     HAL2     0.900000E-01   1.00800           0
     19880 MEMB     57       SLPC     H11Y     HAL2     0.900000E-01   1.00800           0
     19881 MEMB     57       SLPC     C312     CTL2    -0.180000       12.0110           0
     19882 MEMB     57       SLPC     H12X     HAL2     0.900000E-01   1.00800           0
     19883 MEMB     57       SLPC     H12Y     HAL2     0.900000E-01   1.00800           0
     19884 MEMB     57       SLPC     C313     CTL2    -0.180000       12.0110           0
     19885 MEMB     57       SLPC     H13X     HAL2     0.900000E-01   1.00800           0
     19886 MEMB     57       SLPC     H13Y     HAL2     0.900000E-01   1.00800           0
     19887 MEMB     57       SLPC     C314     CTL2    -0.180000       12.0110           0
     19888 MEMB     57       SLPC     H14X     HAL2     0.900000E-01   1.00800           0
     19889 MEMB     57       SLPC     H14Y     HAL2     0.900000E-01   1.00800           0
     19890 MEMB     57       SLPC     C315     CTL2    -0.180000       12.0110           0
     19891 MEMB     57       SLPC     H15X     HAL2     0.900000E-01   1.00800           0
     19892 MEMB     57       SLPC     H15Y     HAL2     0.900000E-01   1.00800           0
     19893 MEMB     57       SLPC     C316     CTL2    -0.180000       12.0110           0
     19894 MEMB     57       SLPC     H16X     HAL2     0.900000E-01   1.00800           0
     19895 MEMB     57       SLPC     H16Y     HAL2     0.900000E-01   1.00800           0
     19896 MEMB     57       SLPC     C317     CTL2    -0.180000       12.0110           0
     19897 MEMB     57       SLPC     H17X     HAL2     0.900000E-01   1.00800           0
     19898 MEMB     57       SLPC     H17Y     HAL2     0.900000E-01   1.00800           0
     19899 MEMB     57       SLPC     C318     CTL3    -0.270000       12.0110           0
     19900 MEMB     57       SLPC     H18X     HAL3     0.900000E-01   1.00800           0
     19901 MEMB     57       SLPC     H18Y     HAL3     0.900000E-01   1.00800           0
     19902 MEMB     57       SLPC     H18Z     HAL3     0.900000E-01   1.00800           0
     19903 MEMB     58       SLPC     N        NTL     -0.600000       14.0070           0
     19904 MEMB     58       SLPC     C13      CTL5    -0.350000       12.0110           0
     19905 MEMB     58       SLPC     H13A     HL       0.250000       1.00800           0
     19906 MEMB     58       SLPC     H13B     HL       0.250000       1.00800           0
     19907 MEMB     58       SLPC     H13C     HL       0.250000       1.00800           0
     19908 MEMB     58       SLPC     C14      CTL5    -0.350000       12.0110           0
     19909 MEMB     58       SLPC     H14A     HL       0.250000       1.00800           0
     19910 MEMB     58       SLPC     H14B     HL       0.250000       1.00800           0
     19911 MEMB     58       SLPC     H14C     HL       0.250000       1.00800           0
     19912 MEMB     58       SLPC     C15      CTL5    -0.350000       12.0110           0
     19913 MEMB     58       SLPC     H15A     HL       0.250000       1.00800           0
     19914 MEMB     58       SLPC     H15B     HL       0.250000       1.00800           0
     19915 MEMB     58       SLPC     H15C     HL       0.250000       1.00800           0
     19916 MEMB     58       SLPC     C12      CTL2    -0.100000       12.0110           0
     19917 MEMB     58       SLPC     H12A     HL       0.250000       1.00800           0
     19918 MEMB     58       SLPC     H12B     HL       0.250000       1.00800           0
     19919 MEMB     58       SLPC     C11      CTL2    -0.800000E-01   12.0110           0
     19920 MEMB     58       SLPC     H11A     HAL2     0.900000E-01   1.00800           0
     19921 MEMB     58       SLPC     H11B     HAL2     0.900000E-01   1.00800           0
     19922 MEMB     58       SLPC     P        PL       1.500000       30.9740           0
     19923 MEMB     58       SLPC     O13      O2L     -0.780000       15.9994           0
     19924 MEMB     58       SLPC     O14      O2L     -0.780000       15.9994           0
     19925 MEMB     58       SLPC     O12      OSLP    -0.570000       15.9994           0
     19926 MEMB     58       SLPC     O11      OSLP    -0.570000       15.9994           0
     19927 MEMB     58       SLPC     C1       CTL2    -0.800000E-01   12.0110           0
     19928 MEMB     58       SLPC     HA       HAL2     0.900000E-01   1.00800           0
     19929 MEMB     58       SLPC     HB       HAL2     0.900000E-01   1.00800           0
     19930 MEMB     58       SLPC     C2       CTL1     0.170000       12.0110           0
     19931 MEMB     58       SLPC     HS       HAL1     0.900000E-01   1.00800           0
     19932 MEMB     58       SLPC     O21      OSL     -0.490000       15.9994           0
     19933 MEMB     58       SLPC     C21      CL       0.900000       12.0110           0
     19934 MEMB     58       SLPC     O22      OBL     -0.630000       15.9994           0
     19935 MEMB     58       SLPC     C22      CTL2    -0.220000       12.0110           0
     19936 MEMB     58       SLPC     H2R      HAL2     0.900000E-01   1.00800           0
     19937 MEMB     58       SLPC     H2S      HAL2     0.900000E-01   1.00800           0
     19938 MEMB     58       SLPC     C3       CTL2     0.800000E-01   12.0110           0
     19939 MEMB     58       SLPC     HX       HAL2     0.900000E-01   1.00800           0
     19940 MEMB     58       SLPC     HY       HAL2     0.900000E-01   1.00800           0
     19941 MEMB     58       SLPC     O31      OSL     -0.490000       15.9994           0
     19942 MEMB     58       SLPC     C31      CL       0.900000       12.0110           0
     19943 MEMB     58       SLPC     O32      OBL     -0.630000       15.9994           0
     19944 MEMB     58       SLPC     C32      CTL2    -0.220000       12.0110           0
     19945 MEMB     58       SLPC     H2X      HAL2     0.900000E-01   1.00800           0
     19946 MEMB     58       SLPC     H2Y      HAL2     0.900000E-01   1.00800           0
     19947 MEMB     58       SLPC     C23      CTL2    -0.180000       12.0110           0
     19948 MEMB     58       SLPC     H3R      HAL2     0.900000E-01   1.00800           0
     19949 MEMB     58       SLPC     H3S      HAL2     0.900000E-01   1.00800           0
     19950 MEMB     58       SLPC     C24      CTL2    -0.180000       12.0110           0
     19951 MEMB     58       SLPC     H4R      HAL2     0.900000E-01   1.00800           0
     19952 MEMB     58       SLPC     H4S      HAL2     0.900000E-01   1.00800           0
     19953 MEMB     58       SLPC     C25      CTL2    -0.180000       12.0110           0
     19954 MEMB     58       SLPC     H5R      HAL2     0.900000E-01   1.00800           0
     19955 MEMB     58       SLPC     H5S      HAL2     0.900000E-01   1.00800           0
     19956 MEMB     58       SLPC     C26      CTL2    -0.180000       12.0110           0
     19957 MEMB     58       SLPC     H6R      HAL2     0.900000E-01   1.00800           0
     19958 MEMB     58       SLPC     H6S      HAL2     0.900000E-01   1.00800           0
     19959 MEMB     58       SLPC     C27      CTL2    -0.180000       12.0110           0
     19960 MEMB     58       SLPC     H7R      HAL2     0.900000E-01   1.00800           0
     19961 MEMB     58       SLPC     H7S      HAL2     0.900000E-01   1.00800           0
     19962 MEMB     58       SLPC     C28      CTL2    -0.180000       12.0110           0
     19963 MEMB     58       SLPC     H8R      HAL2     0.900000E-01   1.00800           0
     19964 MEMB     58       SLPC     H8S      HAL2     0.900000E-01   1.00800           0
     19965 MEMB     58       SLPC     C29      CEL1    -0.150000       12.0110           0
     19966 MEMB     58       SLPC     H9R      HEL1     0.150000       1.00800           0
     19967 MEMB     58       SLPC     C210     CEL1    -0.150000       12.0110           0
     19968 MEMB     58       SLPC     H10R     HEL1     0.150000       1.00800           0
     19969 MEMB     58       SLPC     C211     CTL2    -0.180000       12.0110           0
     19970 MEMB     58       SLPC     H11R     HAL2     0.900000E-01   1.00800           0
     19971 MEMB     58       SLPC     H11S     HAL2     0.900000E-01   1.00800           0
     19972 MEMB     58       SLPC     C212     CEL1    -0.150000       12.0110           0
     19973 MEMB     58       SLPC     H12R     HEL1     0.150000       1.00800           0
     19974 MEMB     58       SLPC     C213     CEL1    -0.150000       12.0110           0
     19975 MEMB     58       SLPC     H13R     HEL1     0.150000       1.00800           0
     19976 MEMB     58       SLPC     C214     CTL2    -0.180000       12.0110           0
     19977 MEMB     58       SLPC     H14R     HAL2     0.900000E-01   1.00800           0
     19978 MEMB     58       SLPC     H14S     HAL2     0.900000E-01   1.00800           0
     19979 MEMB     58       SLPC     C215     CTL2    -0.180000       12.0110           0
     19980 MEMB     58       SLPC     H15R     HAL2     0.900000E-01   1.00800           0
     19981 MEMB     58       SLPC     H15S     HAL2     0.900000E-01   1.00800           0
     19982 MEMB     58       SLPC     C216     CTL2    -0.180000       12.0110           0
     19983 MEMB     58       SLPC     H16R     HAL2     0.900000E-01   1.00800           0
     19984 MEMB     58       SLPC     H16S     HAL2     0.900000E-01   1.00800           0
     19985 MEMB     58       SLPC     C217     CTL2    -0.180000       12.0110           0
     19986 MEMB     58       SLPC     H17R     HAL2     0.900000E-01   1.00800           0
     19987 MEMB     58       SLPC     H17S     HAL2     0.900000E-01   1.00800           0
     19988 MEMB     58       SLPC     C218     CTL3    -0.270000       12.0110           0
     19989 MEMB     58       SLPC     H18R     HAL3     0.900000E-01   1.00800           0
     19990 MEMB     58       SLPC     H18S     HAL3     0.900000E-01   1.00800           0
     19991 MEMB     58       SLPC     H18T     HAL3     0.900000E-01   1.00800           0
     19992 MEMB     58       SLPC     C33      CTL2    -0.180000       12.0110           0
     19993 MEMB     58       SLPC     H3X      HAL2     0.900000E-01   1.00800           0
     19994 MEMB     58       SLPC     H3Y      HAL2     0.900000E-01   1.00800           0
     19995 MEMB     58       SLPC     C34      CTL2    -0.180000       12.0110           0
     19996 MEMB     58       SLPC     H4X      HAL2     0.900000E-01   1.00800           0
     19997 MEMB     58       SLPC     H4Y      HAL2     0.900000E-01   1.00800           0
     19998 MEMB     58       SLPC     C35      CTL2    -0.180000       12.0110           0
     19999 MEMB     58       SLPC     H5X      HAL2     0.900000E-01   1.00800           0
     20000 MEMB     58       SLPC     H5Y      HAL2     0.900000E-01   1.00800           0
     20001 MEMB     58       SLPC     C36      CTL2    -0.180000       12.0110           0
     20002 MEMB     58       SLPC     H6X      HAL2     0.900000E-01   1.00800           0
     20003 MEMB     58       SLPC     H6Y      HAL2     0.900000E-01   1.00800           0
     20004 MEMB     58       SLPC     C37      CTL2    -0.180000       12.0110           0
     20005 MEMB     58       SLPC     H7X      HAL2     0.900000E-01   1.00800           0
     20006 MEMB     58       SLPC     H7Y      HAL2     0.900000E-01   1.00800           0
     20007 MEMB     58       SLPC     C38      CTL2    -0.180000       12.0110           0
     20008 MEMB     58       SLPC     H8X      HAL2     0.900000E-01   1.00800           0
     20009 MEMB     58       SLPC     H8Y      HAL2     0.900000E-01   1.00800           0
     20010 MEMB     58       SLPC     C39      CTL2    -0.180000       12.0110           0
     20011 MEMB     58       SLPC     H9X      HAL2     0.900000E-01   1.00800           0
     20012 MEMB     58       SLPC     H9Y      HAL2     0.900000E-01   1.00800           0
     20013 MEMB     58       SLPC     C310     CTL2    -0.180000       12.0110           0
     20014 MEMB     58       SLPC     H10X     HAL2     0.900000E-01   1.00800           0
     20015 MEMB     58       SLPC     H10Y     HAL2     0.900000E-01   1.00800           0
     20016 MEMB     58       SLPC     C311     CTL2    -0.180000       12.0110           0
     20017 MEMB     58       SLPC     H11X     HAL2     0.900000E-01   1.00800           0
     20018 MEMB     58       SLPC     H11Y     HAL2     0.900000E-01   1.00800           0
     20019 MEMB     58       SLPC     C312     CTL2    -0.180000       12.0110           0
     20020 MEMB     58       SLPC     H12X     HAL2     0.900000E-01   1.00800           0
     20021 MEMB     58       SLPC     H12Y     HAL2     0.900000E-01   1.00800           0
     20022 MEMB     58       SLPC     C313     CTL2    -0.180000       12.0110           0
     20023 MEMB     58       SLPC     H13X     HAL2     0.900000E-01   1.00800           0
     20024 MEMB     58       SLPC     H13Y     HAL2     0.900000E-01   1.00800           0
     20025 MEMB     58       SLPC     C314     CTL2    -0.180000       12.0110           0
     20026 MEMB     58       SLPC     H14X     HAL2     0.900000E-01   1.00800           0
     20027 MEMB     58       SLPC     H14Y     HAL2     0.900000E-01   1.00800           0
     20028 MEMB     58       SLPC     C315     CTL2    -0.180000       12.0110           0
     20029 MEMB     58       SLPC     H15X     HAL2     0.900000E-01   1.00800           0
     20030 MEMB     58       SLPC     H15Y     HAL2     0.900000E-01   1.00800           0
     20031 MEMB     58       SLPC     C316     CTL2    -0.180000       12.0110           0
     20032 MEMB     58       SLPC     H16X     HAL2     0.900000E-01   1.00800           0
     20033 MEMB     58       SLPC     H16Y     HAL2     0.900000E-01   1.00800           0
     20034 MEMB     58       SLPC     C317     CTL2    -0.180000       12.0110           0
     20035 MEMB     58       SLPC     H17X     HAL2     0.900000E-01   1.00800           0
     20036 MEMB     58       SLPC     H17Y     HAL2     0.900000E-01   1.00800           0
     20037 MEMB     58       SLPC     C318     CTL3    -0.270000       12.0110           0
     20038 MEMB     58       SLPC     H18X     HAL3     0.900000E-01   1.00800           0
     20039 MEMB     58       SLPC     H18Y     HAL3     0.900000E-01   1.00800           0
     20040 MEMB     58       SLPC     H18Z     HAL3     0.900000E-01   1.00800           0
     20041 MEMB     77       SLPC     N        NTL     -0.600000       14.0070           0
     20042 MEMB     77       SLPC     C13      CTL5    -0.350000       12.0110           0
     20043 MEMB     77       SLPC     H13A     HL       0.250000       1.00800           0
     20044 MEMB     77       SLPC     H13B     HL       0.250000       1.00800           0
     20045 MEMB     77       SLPC     H13C     HL       0.250000       1.00800           0
     20046 MEMB     77       SLPC     C14      CTL5    -0.350000       12.0110           0
     20047 MEMB     77       SLPC     H14A     HL       0.250000       1.00800           0
     20048 MEMB     77       SLPC     H14B     HL       0.250000       1.00800           0
     20049 MEMB     77       SLPC     H14C     HL       0.250000       1.00800           0
     20050 MEMB     77       SLPC     C15      CTL5    -0.350000       12.0110           0
     20051 MEMB     77       SLPC     H15A     HL       0.250000       1.00800           0
     20052 MEMB     77       SLPC     H15B     HL       0.250000       1.00800           0
     20053 MEMB     77       SLPC     H15C     HL       0.250000       1.00800           0
     20054 MEMB     77       SLPC     C12      CTL2    -0.100000       12.0110           0
     20055 MEMB     77       SLPC     H12A     HL       0.250000       1.00800           0
     20056 MEMB     77       SLPC     H12B     HL       0.250000       1.00800           0
     20057 MEMB     77       SLPC     C11      CTL2    -0.800000E-01   12.0110           0
     20058 MEMB     77       SLPC     H11A     HAL2     0.900000E-01   1.00800           0
     20059 MEMB     77       SLPC     H11B     HAL2     0.900000E-01   1.00800           0
     20060 MEMB     77       SLPC     P        PL       1.500000       30.9740           0
     20061 MEMB     77       SLPC     O13      O2L     -0.780000       15.9994           0
     20062 MEMB     77       SLPC     O14      O2L     -0.780000       15.9994           0
     20063 MEMB     77       SLPC     O12      OSLP    -0.570000       15.9994           0
     20064 MEMB     77       SLPC     O11      OSLP    -0.570000       15.9994           0
     20065 MEMB     77       SLPC     C1       CTL2    -0.800000E-01   12.0110           0
     20066 MEMB     77       SLPC     HA       HAL2     0.900000E-01   1.00800           0
     20067 MEMB     77       SLPC     HB       HAL2     0.900000E-01   1.00800           0
     20068 MEMB     77       SLPC     C2       CTL1     0.170000       12.0110           0
     20069 MEMB     77       SLPC     HS       HAL1     0.900000E-01   1.00800           0
     20070 MEMB     77       SLPC     O21      OSL     -0.490000       15.9994           0
     20071 MEMB     77       SLPC     C21      CL       0.900000       12.0110           0
     20072 MEMB     77       SLPC     O22      OBL     -0.630000       15.9994           0
     20073 MEMB     77       SLPC     C22      CTL2    -0.220000       12.0110           0
     20074 MEMB     77       SLPC     H2R      HAL2     0.900000E-01   1.00800           0
     20075 MEMB     77       SLPC     H2S      HAL2     0.900000E-01   1.00800           0
     20076 MEMB     77       SLPC     C3       CTL2     0.800000E-01   12.0110           0
     20077 MEMB     77       SLPC     HX       HAL2     0.900000E-01   1.00800           0
     20078 MEMB     77       SLPC     HY       HAL2     0.900000E-01   1.00800           0
     20079 MEMB     77       SLPC     O31      OSL     -0.490000       15.9994           0
     20080 MEMB     77       SLPC     C31      CL       0.900000       12.0110           0
     20081 MEMB     77       SLPC     O32      OBL     -0.630000       15.9994           0
     20082 MEMB     77       SLPC     C32      CTL2    -0.220000       12.0110           0
     20083 MEMB     77       SLPC     H2X      HAL2     0.900000E-01   1.00800           0
     20084 MEMB     77       SLPC     H2Y      HAL2     0.900000E-01   1.00800           0
     20085 MEMB     77       SLPC     C23      CTL2    -0.180000       12.0110           0
     20086 MEMB     77       SLPC     H3R      HAL2     0.900000E-01   1.00800           0
     20087 MEMB     77       SLPC     H3S      HAL2     0.900000E-01   1.00800           0
     20088 MEMB     77       SLPC     C24      CTL2    -0.180000       12.0110           0
     20089 MEMB     77       SLPC     H4R      HAL2     0.900000E-01   1.00800           0
     20090 MEMB     77       SLPC     H4S      HAL2     0.900000E-01   1.00800           0
     20091 MEMB     77       SLPC     C25      CTL2    -0.180000       12.0110           0
     20092 MEMB     77       SLPC     H5R      HAL2     0.900000E-01   1.00800           0
     20093 MEMB     77       SLPC     H5S      HAL2     0.900000E-01   1.00800           0
     20094 MEMB     77       SLPC     C26      CTL2    -0.180000       12.0110           0
     20095 MEMB     77       SLPC     H6R      HAL2     0.900000E-01   1.00800           0
     20096 MEMB     77       SLPC     H6S      HAL2     0.900000E-01   1.00800           0
     20097 MEMB     77       SLPC     C27      CTL2    -0.180000       12.0110           0
     20098 MEMB     77       SLPC     H7R      HAL2     0.900000E-01   1.00800           0
     20099 MEMB     77       SLPC     H7S      HAL2     0.900000E-01   1.00800           0
     20100 MEMB     77       SLPC     C28      CTL2    -0.180000       12.0110           0
     20101 MEMB     77       SLPC     H8R      HAL2     0.900000E-01   1.00800           0
     20102 MEMB     77       SLPC     H8S      HAL2     0.900000E-01   1.00800           0
     20103 MEMB     77       SLPC     C29      CEL1    -0.150000       12.0110           0
     20104 MEMB     77       SLPC     H9R      HEL1     0.150000       1.00800           0
     20105 MEMB     77       SLPC     C210     CEL1    -0.150000       12.0110           0
     20106 MEMB     77       SLPC     H10R     HEL1     0.150000       1.00800           0
     20107 MEMB     77       SLPC     C211     CTL2    -0.180000       12.0110           0
     20108 MEMB     77       SLPC     H11R     HAL2     0.900000E-01   1.00800           0
     20109 MEMB     77       SLPC     H11S     HAL2     0.900000E-01   1.00800           0
     20110 MEMB     77       SLPC     C212     CEL1    -0.150000       12.0110           0
     20111 MEMB     77       SLPC     H12R     HEL1     0.150000       1.00800           0
     20112 MEMB     77       SLPC     C213     CEL1    -0.150000       12.0110           0
     20113 MEMB     77       SLPC     H13R     HEL1     0.150000       1.00800           0
     20114 MEMB     77       SLPC     C214     CTL2    -0.180000       12.0110           0
     20115 MEMB     77       SLPC     H14R     HAL2     0.900000E-01   1.00800           0
     20116 MEMB     77       SLPC     H14S     HAL2     0.900000E-01   1.00800           0
     20117 MEMB     77       SLPC     C215     CTL2    -0.180000       12.0110           0
     20118 MEMB     77       SLPC     H15R     HAL2     0.900000E-01   1.00800           0
     20119 MEMB     77       SLPC     H15S     HAL2     0.900000E-01   1.00800           0
     20120 MEMB     77       SLPC     C216     CTL2    -0.180000       12.0110           0
     20121 MEMB     77       SLPC     H16R     HAL2     0.900000E-01   1.00800           0
     20122 MEMB     77       SLPC     H16S     HAL2     0.900000E-01   1.00800           0
     20123 MEMB     77       SLPC     C217     CTL2    -0.180000       12.0110           0
     20124 MEMB     77       SLPC     H17R     HAL2     0.900000E-01   1.00800           0
     20125 MEMB     77       SLPC     H17S     HAL2     0.900000E-01   1.00800           0
     20126 MEMB     77       SLPC     C218     CTL3    -0.270000       12.0110           0
     20127 MEMB     77       SLPC     H18R     HAL3     0.900000E-01   1.00800           0
     20128 MEMB     77       SLPC     H18S     HAL3     0.900000E-01   1.00800           0
     20129 MEMB     77       SLPC     H18T     HAL3     0.900000E-01   1.00800           0
     20130 MEMB     77       SLPC     C33      CTL2    -0.180000       12.0110           0
     20131 MEMB     77       SLPC     H3X      HAL2     0.900000E-01   1.00800           0
     20132 MEMB     77       SLPC     H3Y      HAL2     0.900000E-01   1.00800           0
     20133 MEMB     77       SLPC     C34      CTL2    -0.180000       12.0110           0
     20134 MEMB     77       SLPC     H4X      HAL2     0.900000E-01   1.00800           0
     20135 MEMB     77       SLPC     H4Y      HAL2     0.900000E-01   1.00800           0
     20136 MEMB     77       SLPC     C35      CTL2    -0.180000       12.0110           0
     20137 MEMB     77       SLPC     H5X      HAL2     0.900000E-01   1.00800           0
     20138 MEMB     77       SLPC     H5Y      HAL2     0.900000E-01   1.00800           0
     20139 MEMB     77       SLPC     C36      CTL2    -0.180000       12.0110           0
     20140 MEMB     77       SLPC     H6X      HAL2     0.900000E-01   1.00800           0
     20141 MEMB     77       SLPC     H6Y      HAL2     0.900000E-01   1.00800           0
     20142 MEMB     77       SLPC     C37      CTL2    -0.180000       12.0110           0
     20143 MEMB     77       SLPC     H7X      HAL2     0.900000E-01   1.00800           0
     20144 MEMB     77       SLPC     H7Y      HAL2     0.900000E-01   1.00800           0
     20145 MEMB     77       SLPC     C38      CTL2    -0.180000       12.0110           0
     20146 MEMB     77       SLPC     H8X      HAL2     0.900000E-01   1.00800           0
     20147 MEMB     77       SLPC     H8Y      HAL2     0.900000E-01   1.00800           0
     20148 MEMB     77       SLPC     C39      CTL2    -0.180000       12.0110           0
     20149 MEMB     77       SLPC     H9X      HAL2     0.900000E-01   1.00800           0
     20150 MEMB     77       SLPC     H9Y      HAL2     0.900000E-01   1.00800           0
     20151 MEMB     77       SLPC     C310     CTL2    -0.180000       12.0110           0
     20152 MEMB     77       SLPC     H10X     HAL2     0.900000E-01   1.00800           0
     20153 MEMB     77       SLPC     H10Y     HAL2     0.900000E-01   1.00800           0
     20154 MEMB     77       SLPC     C311     CTL2    -0.180000       12.0110           0
     20155 MEMB     77       SLPC     H11X     HAL2     0.900000E-01   1.00800           0
     20156 MEMB     77       SLPC     H11Y     HAL2     0.900000E-01   1.00800           0
     20157 MEMB     77       SLPC     C312     CTL2    -0.180000       12.0110           0
     20158 MEMB     77       SLPC     H12X     HAL2     0.900000E-01   1.00800           0
     20159 MEMB     77       SLPC     H12Y     HAL2     0.900000E-01   1.00800           0
     20160 MEMB     77       SLPC     C313     CTL2    -0.180000       12.0110           0
     20161 MEMB     77       SLPC     H13X     HAL2     0.900000E-01   1.00800           0
     20162 MEMB     77       SLPC     H13Y     HAL2     0.900000E-01   1.00800           0
     20163 MEMB     77       SLPC     C314     CTL2    -0.180000       12.0110           0
     20164 MEMB     77       SLPC     H14X     HAL2     0.900000E-01   1.00800           0
     20165 MEMB     77       SLPC     H14Y     HAL2     0.900000E-01   1.00800           0
     20166 MEMB     77       SLPC     C315     CTL2    -0.180000       12.0110           0
     20167 MEMB     77       SLPC     H15X     HAL2     0.900000E-01   1.00800           0
     20168 MEMB     77       SLPC     H15Y     HAL2     0.900000E-01   1.00800           0
     20169 MEMB     77       SLPC     C316     CTL2    -0.180000       12.0110           0
     20170 MEMB     77       SLPC     H16X     HAL2     0.900000E-01   1.00800           0
     20171 MEMB     77       SLPC     H16Y     HAL2     0.900000E-01   1.00800           0
     20172 MEMB     77       SLPC     C317     CTL2    -0.180000       12.0110           0
     20173 MEMB     77       SLPC     H17X     HAL2     0.900000E-01   1.00800           0
     20174 MEMB     77       SLPC     H17Y     HAL2     0.900000E-01   1.00800           0
     20175 MEMB     77       SLPC     C318     CTL3    -0.270000       12.0110           0
     20176 MEMB     77       SLPC     H18X     HAL3     0.900000E-01   1.00800           0
     20177 MEMB     77       SLPC     H18Y     HAL3     0.900000E-01   1.00800           0
     20178 MEMB     77       SLPC     H18Z     HAL3     0.900000E-01   1.00800           0
     20179 MEMB     83       SLPC     N        NTL     -0.600000       14.0070           0
     20180 MEMB     83       SLPC     C13      CTL5    -0.350000       12.0110           0
     20181 MEMB     83       SLPC     H13A     HL       0.250000       1.00800           0
     20182 MEMB     83       SLPC     H13B     HL       0.250000       1.00800           0
     20183 MEMB     83       SLPC     H13C     HL       0.250000       1.00800           0
     20184 MEMB     83       SLPC     C14      CTL5    -0.350000       12.0110           0
     20185 MEMB     83       SLPC     H14A     HL       0.250000       1.00800           0
     20186 MEMB     83       SLPC     H14B     HL       0.250000       1.00800           0
     20187 MEMB     83       SLPC     H14C     HL       0.250000       1.00800           0
     20188 MEMB     83       SLPC     C15      CTL5    -0.350000       12.0110           0
     20189 MEMB     83       SLPC     H15A     HL       0.250000       1.00800           0
     20190 MEMB     83       SLPC     H15B     HL       0.250000       1.00800           0
     20191 MEMB     83       SLPC     H15C     HL       0.250000       1.00800           0
     20192 MEMB     83       SLPC     C12      CTL2    -0.100000       12.0110           0
     20193 MEMB     83       SLPC     H12A     HL       0.250000       1.00800           0
     20194 MEMB     83       SLPC     H12B     HL       0.250000       1.00800           0
     20195 MEMB     83       SLPC     C11      CTL2    -0.800000E-01   12.0110           0
     20196 MEMB     83       SLPC     H11A     HAL2     0.900000E-01   1.00800           0
     20197 MEMB     83       SLPC     H11B     HAL2     0.900000E-01   1.00800           0
     20198 MEMB     83       SLPC     P        PL       1.500000       30.9740           0
     20199 MEMB     83       SLPC     O13      O2L     -0.780000       15.9994           0
     20200 MEMB     83       SLPC     O14      O2L     -0.780000       15.9994           0
     20201 MEMB     83       SLPC     O12      OSLP    -0.570000       15.9994           0
     20202 MEMB     83       SLPC     O11      OSLP    -0.570000       15.9994           0
     20203 MEMB     83       SLPC     C1       CTL2    -0.800000E-01   12.0110           0
     20204 MEMB     83       SLPC     HA       HAL2     0.900000E-01   1.00800           0
     20205 MEMB     83       SLPC     HB       HAL2     0.900000E-01   1.00800           0
     20206 MEMB     83       SLPC     C2       CTL1     0.170000       12.0110           0
     20207 MEMB     83       SLPC     HS       HAL1     0.900000E-01   1.00800           0
     20208 MEMB     83       SLPC     O21      OSL     -0.490000       15.9994           0
     20209 MEMB     83       SLPC     C21      CL       0.900000       12.0110           0
     20210 MEMB     83       SLPC     O22      OBL     -0.630000       15.9994           0
     20211 MEMB     83       SLPC     C22      CTL2    -0.220000       12.0110           0
     20212 MEMB     83       SLPC     H2R      HAL2     0.900000E-01   1.00800           0
     20213 MEMB     83       SLPC     H2S      HAL2     0.900000E-01   1.00800           0
     20214 MEMB     83       SLPC     C3       CTL2     0.800000E-01   12.0110           0
     20215 MEMB     83       SLPC     HX       HAL2     0.900000E-01   1.00800           0
     20216 MEMB     83       SLPC     HY       HAL2     0.900000E-01   1.00800           0
     20217 MEMB     83       SLPC     O31      OSL     -0.490000       15.9994           0
     20218 MEMB     83       SLPC     C31      CL       0.900000       12.0110           0
     20219 MEMB     83       SLPC     O32      OBL     -0.630000       15.9994           0
     20220 MEMB     83       SLPC     C32      CTL2    -0.220000       12.0110           0
     20221 MEMB     83       SLPC     H2X      HAL2     0.900000E-01   1.00800           0
     20222 MEMB     83       SLPC     H2Y      HAL2     0.900000E-01   1.00800           0
     20223 MEMB     83       SLPC     C23      CTL2    -0.180000       12.0110           0
     20224 MEMB     83       SLPC     H3R      HAL2     0.900000E-01   1.00800           0
     20225 MEMB     83       SLPC     H3S      HAL2     0.900000E-01   1.00800           0
     20226 MEMB     83       SLPC     C24      CTL2    -0.180000       12.0110           0
     20227 MEMB     83       SLPC     H4R      HAL2     0.900000E-01   1.00800           0
     20228 MEMB     83       SLPC     H4S      HAL2     0.900000E-01   1.00800           0
     20229 MEMB     83       SLPC     C25      CTL2    -0.180000       12.0110           0
     20230 MEMB     83       SLPC     H5R      HAL2     0.900000E-01   1.00800           0
     20231 MEMB     83       SLPC     H5S      HAL2     0.900000E-01   1.00800           0
     20232 MEMB     83       SLPC     C26      CTL2    -0.180000       12.0110           0
     20233 MEMB     83       SLPC     H6R      HAL2     0.900000E-01   1.00800           0
     20234 MEMB     83       SLPC     H6S      HAL2     0.900000E-01   1.00800           0
     20235 MEMB     83       SLPC     C27      CTL2    -0.180000       12.0110           0
     20236 MEMB     83       SLPC     H7R      HAL2     0.900000E-01   1.00800           0
     20237 MEMB     83       SLPC     H7S      HAL2     0.900000E-01   1.00800           0
     20238 MEMB     83       SLPC     C28      CTL2    -0.180000       12.0110           0
     20239 MEMB     83       SLPC     H8R      HAL2     0.900000E-01   1.00800           0
     20240 MEMB     83       SLPC     H8S      HAL2     0.900000E-01   1.00800           0
     20241 MEMB     83       SLPC     C29      CEL1    -0.150000       12.0110           0
     20242 MEMB     83       SLPC     H9R      HEL1     0.150000       1.00800           0
     20243 MEMB     83       SLPC     C210     CEL1    -0.150000       12.0110           0
     20244 MEMB     83       SLPC     H10R     HEL1     0.150000       1.00800           0
     20245 MEMB     83       SLPC     C211     CTL2    -0.180000       12.0110           0
     20246 MEMB     83       SLPC     H11R     HAL2     0.900000E-01   1.00800           0
     20247 MEMB     83       SLPC     H11S     HAL2     0.900000E-01   1.00800           0
     20248 MEMB     83       SLPC     C212     CEL1    -0.150000       12.0110           0
     20249 MEMB     83       SLPC     H12R     HEL1     0.150000       1.00800           0
     20250 MEMB     83       SLPC     C213     CEL1    -0.150000       12.0110           0
     20251 MEMB     83       SLPC     H13R     HEL1     0.150000       1.00800           0
     20252 MEMB     83       SLPC     C214     CTL2    -0.180000       12.0110           0
     20253 MEMB     83       SLPC     H14R     HAL2     0.900000E-01   1.00800           0
     20254 MEMB     83       SLPC     H14S     HAL2     0.900000E-01   1.00800           0
     20255 MEMB     83       SLPC     C215     CTL2    -0.180000       12.0110           0
     20256 MEMB     83       SLPC     H15R     HAL2     0.900000E-01   1.00800           0
     20257 MEMB     83       SLPC     H15S     HAL2     0.900000E-01   1.00800           0
     20258 MEMB     83       SLPC     C216     CTL2    -0.180000       12.0110           0
     20259 MEMB     83       SLPC     H16R     HAL2     0.900000E-01   1.00800           0
     20260 MEMB     83       SLPC     H16S     HAL2     0.900000E-01   1.00800           0
     20261 MEMB     83       SLPC     C217     CTL2    -0.180000       12.0110           0
     20262 MEMB     83       SLPC     H17R     HAL2     0.900000E-01   1.00800           0
     20263 MEMB     83       SLPC     H17S     HAL2     0.900000E-01   1.00800           0
     20264 MEMB     83       SLPC     C218     CTL3    -0.270000       12.0110           0
     20265 MEMB     83       SLPC     H18R     HAL3     0.900000E-01   1.00800           0
     20266 MEMB     83       SLPC     H18S     HAL3     0.900000E-01   1.00800           0
     20267 MEMB     83       SLPC     H18T     HAL3     0.900000E-01   1.00800           0
     20268 MEMB     83       SLPC     C33      CTL2    -0.180000       12.0110           0
     20269 MEMB     83       SLPC     H3X      HAL2     0.900000E-01   1.00800           0
     20270 MEMB     83       SLPC     H3Y      HAL2     0.900000E-01   1.00800           0
     20271 MEMB     83       SLPC     C34      CTL2    -0.180000       12.0110           0
     20272 MEMB     83       SLPC     H4X      HAL2     0.900000E-01   1.00800           0
     20273 MEMB     83       SLPC     H4Y      HAL2     0.900000E-01   1.00800           0
     20274 MEMB     83       SLPC     C35      CTL2    -0.180000       12.0110           0
     20275 MEMB     83       SLPC     H5X      HAL2     0.900000E-01   1.00800           0
     20276 MEMB     83       SLPC     H5Y      HAL2     0.900000E-01   1.00800           0
     20277 MEMB     83       SLPC     C36      CTL2    -0.180000       12.0110           0
     20278 MEMB     83       SLPC     H6X      HAL2     0.900000E-01   1.00800           0
     20279 MEMB     83       SLPC     H6Y      HAL2     0.900000E-01   1.00800           0
     20280 MEMB     83       SLPC     C37      CTL2    -0.180000       12.0110           0
     20281 MEMB     83       SLPC     H7X      HAL2     0.900000E-01   1.00800           0
     20282 MEMB     83       SLPC     H7Y      HAL2     0.900000E-01   1.00800           0
     20283 MEMB     83       SLPC     C38      CTL2    -0.180000       12.0110           0
     20284 MEMB     83       SLPC     H8X      HAL2     0.900000E-01   1.00800           0
     20285 MEMB     83       SLPC     H8Y      HAL2     0.900000E-01   1.00800           0
     20286 MEMB     83       SLPC     C39      CTL2    -0.180000       12.0110           0
     20287 MEMB     83       SLPC     H9X      HAL2     0.900000E-01   1.00800           0
     20288 MEMB     83       SLPC     H9Y      HAL2     0.900000E-01   1.00800           0
     20289 MEMB     83       SLPC     C310     CTL2    -0.180000       12.0110           0
     20290 MEMB     83       SLPC     H10X     HAL2     0.900000E-01   1.00800           0
     20291 MEMB     83       SLPC     H10Y     HAL2     0.900000E-01   1.00800           0
     20292 MEMB     83       SLPC     C311     CTL2    -0.180000       12.0110           0
     20293 MEMB     83       SLPC     H11X     HAL2     0.900000E-01   1.00800           0
     20294 MEMB     83       SLPC     H11Y     HAL2     0.900000E-01   1.00800           0
     20295 MEMB     83       SLPC     C312     CTL2    -0.180000       12.0110           0
     20296 MEMB     83       SLPC     H12X     HAL2     0.900000E-01   1.00800           0
     20297 MEMB     83       SLPC     H12Y     HAL2     0.900000E-01   1.00800           0
     20298 MEMB     83       SLPC     C313     CTL2    -0.180000       12.0110           0
     20299 MEMB     83       SLPC     H13X     HAL2     0.900000E-01   1.00800           0
     20300 MEMB     83       SLPC     H13Y     HAL2     0.900000E-01   1.00800           0
     20301 MEMB     83       SLPC     C314     CTL2    -0.180000       12.0110           0
     20302 MEMB     83       SLPC     H14X     HAL2     0.900000E-01   1.00800           0
     20303 MEMB     83       SLPC     H14Y     HAL2     0.900000E-01   1.00800           0
     20304 MEMB     83       SLPC     C315     CTL2    -0.180000       12.0110           0
     20305 MEMB     83       SLPC     H15X     HAL2     0.900000E-01   1.00800           0
     20306 MEMB     83       SLPC     H15Y     HAL2     0.900000E-01   1.00800           0
     20307 MEMB     83       SLPC     C316     CTL2    -0.180000       12.0110           0
     20308 MEMB     83       SLPC     H16X     HAL2     0.900000E-01   1.00800           0
     20309 MEMB     83       SLPC     H16Y     HAL2     0.900000E-01   1.00800           0
     20310 MEMB     83       SLPC     C317     CTL2    -0.180000       12.0110           0
     20311 MEMB     83       SLPC     H17X     HAL2     0.900000E-01   1.00800           0
     20312 MEMB     83       SLPC     H17Y     HAL2     0.900000E-01   1.00800           0
     20313 MEMB     83       SLPC     C318     CTL3    -0.270000       12.0110           0
     20314 MEMB     83       SLPC     H18X     HAL3     0.900000E-01   1.00800           0
     20315 MEMB     83       SLPC     H18Y     HAL3     0.900000E-01   1.00800           0
     20316 MEMB     83       SLPC     H18Z     HAL3     0.900000E-01   1.00800           0
     20317 MEMB     108      SLPC     N        NTL     -0.600000       14.0070           0
     20318 MEMB     108      SLPC     C13      CTL5    -0.350000       12.0110           0
     20319 MEMB     108      SLPC     H13A     HL       0.250000       1.00800           0
     20320 MEMB     108      SLPC     H13B     HL       0.250000       1.00800           0
     20321 MEMB     108      SLPC     H13C     HL       0.250000       1.00800           0
     20322 MEMB     108      SLPC     C14      CTL5    -0.350000       12.0110           0
     20323 MEMB     108      SLPC     H14A     HL       0.250000       1.00800           0
     20324 MEMB     108      SLPC     H14B     HL       0.250000       1.00800           0
     20325 MEMB     108      SLPC     H14C     HL       0.250000       1.00800           0
     20326 MEMB     108      SLPC     C15      CTL5    -0.350000       12.0110           0
     20327 MEMB     108      SLPC     H15A     HL       0.250000       1.00800           0
     20328 MEMB     108      SLPC     H15B     HL       0.250000       1.00800           0
     20329 MEMB     108      SLPC     H15C     HL       0.250000       1.00800           0
     20330 MEMB     108      SLPC     C12      CTL2    -0.100000       12.0110           0
     20331 MEMB     108      SLPC     H12A     HL       0.250000       1.00800           0
     20332 MEMB     108      SLPC     H12B     HL       0.250000       1.00800           0
     20333 MEMB     108      SLPC     C11      CTL2    -0.800000E-01   12.0110           0
     20334 MEMB     108      SLPC     H11A     HAL2     0.900000E-01   1.00800           0
     20335 MEMB     108      SLPC     H11B     HAL2     0.900000E-01   1.00800           0
     20336 MEMB     108      SLPC     P        PL       1.500000       30.9740           0
     20337 MEMB     108      SLPC     O13      O2L     -0.780000       15.9994           0
     20338 MEMB     108      SLPC     O14      O2L     -0.780000       15.9994           0
     20339 MEMB     108      SLPC     O12      OSLP    -0.570000       15.9994           0
     20340 MEMB     108      SLPC     O11      OSLP    -0.570000       15.9994           0
     20341 MEMB     108      SLPC     C1       CTL2    -0.800000E-01   12.0110           0
     20342 MEMB     108      SLPC     HA       HAL2     0.900000E-01   1.00800           0
     20343 MEMB     108      SLPC     HB       HAL2     0.900000E-01   1.00800           0
     20344 MEMB     108      SLPC     C2       CTL1     0.170000       12.0110           0
     20345 MEMB     108      SLPC     HS       HAL1     0.900000E-01   1.00800           0
     20346 MEMB     108      SLPC     O21      OSL     -0.490000       15.9994           0
     20347 MEMB     108      SLPC     C21      CL       0.900000       12.0110           0
     20348 MEMB     108      SLPC     O22      OBL     -0.630000       15.9994           0
     20349 MEMB     108      SLPC     C22      CTL2    -0.220000       12.0110           0
     20350 MEMB     108      SLPC     H2R      HAL2     0.900000E-01   1.00800           0
     20351 MEMB     108      SLPC     H2S      HAL2     0.900000E-01   1.00800           0
     20352 MEMB     108      SLPC     C3       CTL2     0.800000E-01   12.0110           0
     20353 MEMB     108      SLPC     HX       HAL2     0.900000E-01   1.00800           0
     20354 MEMB     108      SLPC     HY       HAL2     0.900000E-01   1.00800           0
     20355 MEMB     108      SLPC     O31      OSL     -0.490000       15.9994           0
     20356 MEMB     108      SLPC     C31      CL       0.900000       12.0110           0
     20357 MEMB     108      SLPC     O32      OBL     -0.630000       15.9994           0
     20358 MEMB     108      SLPC     C32      CTL2    -0.220000       12.0110           0
     20359 MEMB     108      SLPC     H2X      HAL2     0.900000E-01   1.00800           0
     20360 MEMB     108      SLPC     H2Y      HAL2     0.900000E-01   1.00800           0
     20361 MEMB     108      SLPC     C23      CTL2    -0.180000       12.0110           0
     20362 MEMB     108      SLPC     H3R      HAL2     0.900000E-01   1.00800           0
     20363 MEMB     108      SLPC     H3S      HAL2     0.900000E-01   1.00800           0
     20364 MEMB     108      SLPC     C24      CTL2    -0.180000       12.0110           0
     20365 MEMB     108      SLPC     H4R      HAL2     0.900000E-01   1.00800           0
     20366 MEMB     108      SLPC     H4S      HAL2     0.900000E-01   1.00800           0
     20367 MEMB     108      SLPC     C25      CTL2    -0.180000       12.0110           0
     20368 MEMB     108      SLPC     H5R      HAL2     0.900000E-01   1.00800           0
     20369 MEMB     108      SLPC     H5S      HAL2     0.900000E-01   1.00800           0
     20370 MEMB     108      SLPC     C26      CTL2    -0.180000       12.0110           0
     20371 MEMB     108      SLPC     H6R      HAL2     0.900000E-01   1.00800           0
     20372 MEMB     108      SLPC     H6S      HAL2     0.900000E-01   1.00800           0
     20373 MEMB     108      SLPC     C27      CTL2    -0.180000       12.0110           0
     20374 MEMB     108      SLPC     H7R      HAL2     0.900000E-01   1.00800           0
     20375 MEMB     108      SLPC     H7S      HAL2     0.900000E-01   1.00800           0
     20376 MEMB     108      SLPC     C28      CTL2    -0.180000       12.0110           0
     20377 MEMB     108      SLPC     H8R      HAL2     0.900000E-01   1.00800           0
     20378 MEMB     108      SLPC     H8S      HAL2     0.900000E-01   1.00800           0
     20379 MEMB     108      SLPC     C29      CEL1    -0.150000       12.0110           0
     20380 MEMB     108      SLPC     H9R      HEL1     0.150000       1.00800           0
     20381 MEMB     108      SLPC     C210     CEL1    -0.150000       12.0110           0
     20382 MEMB     108      SLPC     H10R     HEL1     0.150000       1.00800           0
     20383 MEMB     108      SLPC     C211     CTL2    -0.180000       12.0110           0
     20384 MEMB     108      SLPC     H11R     HAL2     0.900000E-01   1.00800           0
     20385 MEMB     108      SLPC     H11S     HAL2     0.900000E-01   1.00800           0
     20386 MEMB     108      SLPC     C212     CEL1    -0.150000       12.0110           0
     20387 MEMB     108      SLPC     H12R     HEL1     0.150000       1.00800           0
     20388 MEMB     108      SLPC     C213     CEL1    -0.150000       12.0110           0
     20389 MEMB     108      SLPC     H13R     HEL1     0.150000       1.00800           0
     20390 MEMB     108      SLPC     C214     CTL2    -0.180000       12.0110           0
     20391 MEMB     108      SLPC     H14R     HAL2     0.900000E-01   1.00800           0
     20392 MEMB     108      SLPC     H14S     HAL2     0.900000E-01   1.00800           0
     20393 MEMB     108      SLPC     C215     CTL2    -0.180000       12.0110           0
     20394 MEMB     108      SLPC     H15R     HAL2     0.900000E-01   1.00800           0
     20395 MEMB     108      SLPC     H15S     HAL2     0.900000E-01   1.00800           0
     20396 MEMB     108      SLPC     C216     CTL2    -0.180000       12.0110           0
     20397 MEMB     108      SLPC     H16R     HAL2     0.900000E-01   1.00800           0
     20398 MEMB     108      SLPC     H16S     HAL2     0.900000E-01   1.00800           0
     20399 MEMB     108      SLPC     C217     CTL2    -0.180000       12.0110           0
     20400 MEMB     108      SLPC     H17R     HAL2     0.900000E-01   1.00800           0
     20401 MEMB     108      SLPC     H17S     HAL2     0.900000E-01   1.00800           0
     20402 MEMB     108      SLPC     C218     CTL3    -0.270000       12.0110           0
     20403 MEMB     108      SLPC     H18R     HAL3     0.900000E-01   1.00800           0
     20404 MEMB     108      SLPC     H18S     HAL3     0.900000E-01   1.00800           0
     20405 MEMB     108      SLPC     H18T     HAL3     0.900000E-01   1.00800           0
     20406 MEMB     108      SLPC     C33      CTL2    -0.180000       12.0110           0
     20407 MEMB     108      SLPC     H3X      HAL2     0.900000E-01   1.00800           0
     20408 MEMB     108      SLPC     H3Y      HAL2     0.900000E-01   1.00800           0
     20409 MEMB     108      SLPC     C34      CTL2    -0.180000       12.0110           0
     20410 MEMB     108      SLPC     H4X      HAL2     0.900000E-01   1.00800           0
     20411 MEMB     108      SLPC     H4Y      HAL2     0.900000E-01   1.00800           0
     20412 MEMB     108      SLPC     C35      CTL2    -0.180000       12.0110           0
     20413 MEMB     108      SLPC     H5X      HAL2     0.900000E-01   1.00800           0
     20414 MEMB     108      SLPC     H5Y      HAL2     0.900000E-01   1.00800           0
     20415 MEMB     108      SLPC     C36      CTL2    -0.180000       12.0110           0
     20416 MEMB     108      SLPC     H6X      HAL2     0.900000E-01   1.00800           0
     20417 MEMB     108      SLPC     H6Y      HAL2     0.900000E-01   1.00800           0
     20418 MEMB     108      SLPC     C37      CTL2    -0.180000       12.0110           0
     20419 MEMB     108      SLPC     H7X      HAL2     0.900000E-01   1.00800           0
     20420 MEMB     108      SLPC     H7Y      HAL2     0.900000E-01   1.00800           0
     20421 MEMB     108      SLPC     C38      CTL2    -0.180000       12.0110           0
     20422 MEMB     108      SLPC     H8X      HAL2     0.900000E-01   1.00800           0
     20423 MEMB     108      SLPC     H8Y      HAL2     0.900000E-01   1.00800           0
     20424 MEMB     108      SLPC     C39      CTL2    -0.180000       12.0110           0
     20425 MEMB     108      SLPC     H9X      HAL2     0.900000E-01   1.00800           0
     20426 MEMB     108      SLPC     H9Y      HAL2     0.900000E-01   1.00800           0
     20427 MEMB     108      SLPC     C310     CTL2    -0.180000       12.0110           0
     20428 MEMB     108      SLPC     H10X     HAL2     0.900000E-01   1.00800           0
     20429 MEMB     108      SLPC     H10Y     HAL2     0.900000E-01   1.00800           0
     20430 MEMB     108      SLPC     C311     CTL2    -0.180000       12.0110           0
     20431 MEMB     108      SLPC     H11X     HAL2     0.900000E-01   1.00800           0
     20432 MEMB     108      SLPC     H11Y     HAL2     0.900000E-01   1.00800           0
     20433 MEMB     108      SLPC     C312     CTL2    -0.180000       12.0110           0
     20434 MEMB     108      SLPC     H12X     HAL2     0.900000E-01   1.00800           0
     20435 MEMB     108      SLPC     H12Y     HAL2     0.900000E-01   1.00800           0
     20436 MEMB     108      SLPC     C313     CTL2    -0.180000       12.0110           0
     20437 MEMB     108      SLPC     H13X     HAL2     0.900000E-01   1.00800           0
     20438 MEMB     108      SLPC     H13Y     HAL2     0.900000E-01   1.00800           0
     20439 MEMB     108      SLPC     C314     CTL2    -0.180000       12.0110           0
     20440 MEMB     108      SLPC     H14X     HAL2     0.900000E-01   1.00800           0
     20441 MEMB     108      SLPC     H14Y     HAL2     0.900000E-01   1.00800           0
     20442 MEMB     108      SLPC     C315     CTL2    -0.180000       12.0110           0
     20443 MEMB     108      SLPC     H15X     HAL2     0.900000E-01   1.00800           0
     20444 MEMB     108      SLPC     H15Y     HAL2     0.900000E-01   1.00800           0
     20445 MEMB     108      SLPC     C316     CTL2    -0.180000       12.0110           0
     20446 MEMB     108      SLPC     H16X     HAL2     0.900000E-01   1.00800           0
     20447 MEMB     108      SLPC     H16Y     HAL2     0.900000E-01   1.00800           0
     20448 MEMB     108      SLPC     C317     CTL2    -0.180000       12.0110           0
     20449 MEMB     108      SLPC     H17X     HAL2     0.900000E-01   1.00800           0
     20450 MEMB     108      SLPC     H17Y     HAL2     0.900000E-01   1.00800           0
     20451 MEMB     108      SLPC     C318     CTL3    -0.270000       12.0110           0
     20452 MEMB     108      SLPC     H18X     HAL3     0.900000E-01   1.00800           0
     20453 MEMB     108      SLPC     H18Y     HAL3     0.900000E-01   1.00800           0
     20454 MEMB     108      SLPC     H18Z     HAL3     0.900000E-01   1.00800           0
     20455 MEMB     114      SLPC     N        NTL     -0.600000       14.0070           0
     20456 MEMB     114      SLPC     C13      CTL5    -0.350000       12.0110           0
     20457 MEMB     114      SLPC     H13A     HL       0.250000       1.00800           0
     20458 MEMB     114      SLPC     H13B     HL       0.250000       1.00800           0
     20459 MEMB     114      SLPC     H13C     HL       0.250000       1.00800           0
     20460 MEMB     114      SLPC     C14      CTL5    -0.350000       12.0110           0
     20461 MEMB     114      SLPC     H14A     HL       0.250000       1.00800           0
     20462 MEMB     114      SLPC     H14B     HL       0.250000       1.00800           0
     20463 MEMB     114      SLPC     H14C     HL       0.250000       1.00800           0
     20464 MEMB     114      SLPC     C15      CTL5    -0.350000       12.0110           0
     20465 MEMB     114      SLPC     H15A     HL       0.250000       1.00800           0
     20466 MEMB     114      SLPC     H15B     HL       0.250000       1.00800           0
     20467 MEMB     114      SLPC     H15C     HL       0.250000       1.00800           0
     20468 MEMB     114      SLPC     C12      CTL2    -0.100000       12.0110           0
     20469 MEMB     114      SLPC     H12A     HL       0.250000       1.00800           0
     20470 MEMB     114      SLPC     H12B     HL       0.250000       1.00800           0
     20471 MEMB     114      SLPC     C11      CTL2    -0.800000E-01   12.0110           0
     20472 MEMB     114      SLPC     H11A     HAL2     0.900000E-01   1.00800           0
     20473 MEMB     114      SLPC     H11B     HAL2     0.900000E-01   1.00800           0
     20474 MEMB     114      SLPC     P        PL       1.500000       30.9740           0
     20475 MEMB     114      SLPC     O13      O2L     -0.780000       15.9994           0
     20476 MEMB     114      SLPC     O14      O2L     -0.780000       15.9994           0
     20477 MEMB     114      SLPC     O12      OSLP    -0.570000       15.9994           0
     20478 MEMB     114      SLPC     O11      OSLP    -0.570000       15.9994           0
     20479 MEMB     114      SLPC     C1       CTL2    -0.800000E-01   12.0110           0
     20480 MEMB     114      SLPC     HA       HAL2     0.900000E-01   1.00800           0
     20481 MEMB     114      SLPC     HB       HAL2     0.900000E-01   1.00800           0
     20482 MEMB     114      SLPC     C2       CTL1     0.170000       12.0110           0
     20483 MEMB     114      SLPC     HS       HAL1     0.900000E-01   1.00800           0
     20484 MEMB     114      SLPC     O21      OSL     -0.490000       15.9994           0
     20485 MEMB     114      SLPC     C21      CL       0.900000       12.0110           0
     20486 MEMB     114      SLPC     O22      OBL     -0.630000       15.9994           0
     20487 MEMB     114      SLPC     C22      CTL2    -0.220000       12.0110           0
     20488 MEMB     114      SLPC     H2R      HAL2     0.900000E-01   1.00800           0
     20489 MEMB     114      SLPC     H2S      HAL2     0.900000E-01   1.00800           0
     20490 MEMB     114      SLPC     C3       CTL2     0.800000E-01   12.0110           0
     20491 MEMB     114      SLPC     HX       HAL2     0.900000E-01   1.00800           0
     20492 MEMB     114      SLPC     HY       HAL2     0.900000E-01   1.00800           0
     20493 MEMB     114      SLPC     O31      OSL     -0.490000       15.9994           0
     20494 MEMB     114      SLPC     C31      CL       0.900000       12.0110           0
     20495 MEMB     114      SLPC     O32      OBL     -0.630000       15.9994           0
     20496 MEMB     114      SLPC     C32      CTL2    -0.220000       12.0110           0
     20497 MEMB     114      SLPC     H2X      HAL2     0.900000E-01   1.00800           0
     20498 MEMB     114      SLPC     H2Y      HAL2     0.900000E-01   1.00800           0
     20499 MEMB     114      SLPC     C23      CTL2    -0.180000       12.0110           0
     20500 MEMB     114      SLPC     H3R      HAL2     0.900000E-01   1.00800           0
     20501 MEMB     114      SLPC     H3S      HAL2     0.900000E-01   1.00800           0
     20502 MEMB     114      SLPC     C24      CTL2    -0.180000       12.0110           0
     20503 MEMB     114      SLPC     H4R      HAL2     0.900000E-01   1.00800           0
     20504 MEMB     114      SLPC     H4S      HAL2     0.900000E-01   1.00800           0
     20505 MEMB     114      SLPC     C25      CTL2    -0.180000       12.0110           0
     20506 MEMB     114      SLPC     H5R      HAL2     0.900000E-01   1.00800           0
     20507 MEMB     114      SLPC     H5S      HAL2     0.900000E-01   1.00800           0
     20508 MEMB     114      SLPC     C26      CTL2    -0.180000       12.0110           0
     20509 MEMB     114      SLPC     H6R      HAL2     0.900000E-01   1.00800           0
     20510 MEMB     114      SLPC     H6S      HAL2     0.900000E-01   1.00800           0
     20511 MEMB     114      SLPC     C27      CTL2    -0.180000       12.0110           0
     20512 MEMB     114      SLPC     H7R      HAL2     0.900000E-01   1.00800           0
     20513 MEMB     114      SLPC     H7S      HAL2     0.900000E-01   1.00800           0
     20514 MEMB     114      SLPC     C28      CTL2    -0.180000       12.0110           0
     20515 MEMB     114      SLPC     H8R      HAL2     0.900000E-01   1.00800           0
     20516 MEMB     114      SLPC     H8S      HAL2     0.900000E-01   1.00800           0
     20517 MEMB     114      SLPC     C29      CEL1    -0.150000       12.0110           0
     20518 MEMB     114      SLPC     H9R      HEL1     0.150000       1.00800           0
     20519 MEMB     114      SLPC     C210     CEL1    -0.150000       12.0110           0
     20520 MEMB     114      SLPC     H10R     HEL1     0.150000       1.00800           0
     20521 MEMB     114      SLPC     C211     CTL2    -0.180000       12.0110           0
     20522 MEMB     114      SLPC     H11R     HAL2     0.900000E-01   1.00800           0
     20523 MEMB     114      SLPC     H11S     HAL2     0.900000E-01   1.00800           0
     20524 MEMB     114      SLPC     C212     CEL1    -0.150000       12.0110           0
     20525 MEMB     114      SLPC     H12R     HEL1     0.150000       1.00800           0
     20526 MEMB     114      SLPC     C213     CEL1    -0.150000       12.0110           0
     20527 MEMB     114      SLPC     H13R     HEL1     0.150000       1.00800           0
     20528 MEMB     114      SLPC     C214     CTL2    -0.180000       12.0110           0
     20529 MEMB     114      SLPC     H14R     HAL2     0.900000E-01   1.00800           0
     20530 MEMB     114      SLPC     H14S     HAL2     0.900000E-01   1.00800           0
     20531 MEMB     114      SLPC     C215     CTL2    -0.180000       12.0110           0
     20532 MEMB     114      SLPC     H15R     HAL2     0.900000E-01   1.00800           0
     20533 MEMB     114      SLPC     H15S     HAL2     0.900000E-01   1.00800           0
     20534 MEMB     114      SLPC     C216     CTL2    -0.180000       12.0110           0
     20535 MEMB     114      SLPC     H16R     HAL2     0.900000E-01   1.00800           0
     20536 MEMB     114      SLPC     H16S     HAL2     0.900000E-01   1.00800           0
     20537 MEMB     114      SLPC     C217     CTL2    -0.180000       12.0110           0
     20538 MEMB     114      SLPC     H17R     HAL2     0.900000E-01   1.00800           0
     20539 MEMB     114      SLPC     H17S     HAL2     0.900000E-01   1.00800           0
     20540 MEMB     114      SLPC     C218     CTL3    -0.270000       12.0110           0
     20541 MEMB     114      SLPC     H18R     HAL3     0.900000E-01   1.00800           0
     20542 MEMB     114      SLPC     H18S     HAL3     0.900000E-01   1.00800           0
     20543 MEMB     114      SLPC     H18T     HAL3     0.900000E-01   1.00800           0
     20544 MEMB     114      SLPC     C33      CTL2    -0.180000       12.0110           0
     20545 MEMB     114      SLPC     H3X      HAL2     0.900000E-01   1.00800           0
     20546 MEMB     114      SLPC     H3Y      HAL2     0.900000E-01   1.00800           0
     20547 MEMB     114      SLPC     C34      CTL2    -0.180000       12.0110           0
     20548 MEMB     114      SLPC     H4X      HAL2     0.900000E-01   1.00800           0
     20549 MEMB     114      SLPC     H4Y      HAL2     0.900000E-01   1.00800           0
     20550 MEMB     114      SLPC     C35      CTL2    -0.180000       12.0110           0
     20551 MEMB     114      SLPC     H5X      HAL2     0.900000E-01   1.00800           0
     20552 MEMB     114      SLPC     H5Y      HAL2     0.900000E-01   1.00800           0
     20553 MEMB     114      SLPC     C36      CTL2    -0.180000       12.0110           0
     20554 MEMB     114      SLPC     H6X      HAL2     0.900000E-01   1.00800           0
     20555 MEMB     114      SLPC     H6Y      HAL2     0.900000E-01   1.00800           0
     20556 MEMB     114      SLPC     C37      CTL2    -0.180000       12.0110           0
     20557 MEMB     114      SLPC     H7X      HAL2     0.900000E-01   1.00800           0
     20558 MEMB     114      SLPC     H7Y      HAL2     0.900000E-01   1.00800           0
     20559 MEMB     114      SLPC     C38      CTL2    -0.180000       12.0110           0
     20560 MEMB     114      SLPC     H8X      HAL2     0.900000E-01   1.00800           0
     20561 MEMB     114      SLPC     H8Y      HAL2     0.900000E-01   1.00800           0
     20562 MEMB     114      SLPC     C39      CTL2    -0.180000       12.0110           0
     20563 MEMB     114      SLPC     H9X      HAL2     0.900000E-01   1.00800           0
     20564 MEMB     114      SLPC     H9Y      HAL2     0.900000E-01   1.00800           0
     20565 MEMB     114      SLPC     C310     CTL2    -0.180000       12.0110           0
     20566 MEMB     114      SLPC     H10X     HAL2     0.900000E-01   1.00800           0
     20567 MEMB     114      SLPC     H10Y     HAL2     0.900000E-01   1.00800           0
     20568 MEMB     114      SLPC     C311     CTL2    -0.180000       12.0110           0
     20569 MEMB     114      SLPC     H11X     HAL2     0.900000E-01   1.00800           0
     20570 MEMB     114      SLPC     H11Y     HAL2     0.900000E-01   1.00800           0
     20571 MEMB     114      SLPC     C312     CTL2    -0.180000       12.0110           0
     20572 MEMB     114      SLPC     H12X     HAL2     0.900000E-01   1.00800           0
     20573 MEMB     114      SLPC     H12Y     HAL2     0.900000E-01   1.00800           0
     20574 MEMB     114      SLPC     C313     CTL2    -0.180000       12.0110           0
     20575 MEMB     114      SLPC     H13X     HAL2     0.900000E-01   1.00800           0
     20576 MEMB     114      SLPC     H13Y     HAL2     0.900000E-01   1.00800           0
     20577 MEMB     114      SLPC     C314     CTL2    -0.180000       12.0110           0
     20578 MEMB     114      SLPC     H14X     HAL2     0.900000E-01   1.00800           0
     20579 MEMB     114      SLPC     H14Y     HAL2     0.900000E-01   1.00800           0
     20580 MEMB     114      SLPC     C315     CTL2    -0.180000       12.0110           0
     20581 MEMB     114      SLPC     H15X     HAL2     0.900000E-01   1.00800           0
     20582 MEMB     114      SLPC     H15Y     HAL2     0.900000E-01   1.00800           0
     20583 MEMB     114      SLPC     C316     CTL2    -0.180000       12.0110           0
     20584 MEMB     114      SLPC     H16X     HAL2     0.900000E-01   1.00800           0
     20585 MEMB     114      SLPC     H16Y     HAL2     0.900000E-01   1.00800           0
     20586 MEMB     114      SLPC     C317     CTL2    -0.180000       12.0110           0
     20587 MEMB     114      SLPC     H17X     HAL2     0.900000E-01   1.00800           0
     20588 MEMB     114      SLPC     H17Y     HAL2     0.900000E-01   1.00800           0
     20589 MEMB     114      SLPC     C318     CTL3    -0.270000       12.0110           0
     20590 MEMB     114      SLPC     H18X     HAL3     0.900000E-01   1.00800           0
     20591 MEMB     114      SLPC     H18Y     HAL3     0.900000E-01   1.00800           0
     20592 MEMB     114      SLPC     H18Z     HAL3     0.900000E-01   1.00800           0
     20593 MEMB     135      SLPC     N        NTL     -0.600000       14.0070           0
     20594 MEMB     135      SLPC     C13      CTL5    -0.350000       12.0110           0
     20595 MEMB     135      SLPC     H13A     HL       0.250000       1.00800           0
     20596 MEMB     135      SLPC     H13B     HL       0.250000       1.00800           0
     20597 MEMB     135      SLPC     H13C     HL       0.250000       1.00800           0
     20598 MEMB     135      SLPC     C14      CTL5    -0.350000       12.0110           0
     20599 MEMB     135      SLPC     H14A     HL       0.250000       1.00800           0
     20600 MEMB     135      SLPC     H14B     HL       0.250000       1.00800           0
     20601 MEMB     135      SLPC     H14C     HL       0.250000       1.00800           0
     20602 MEMB     135      SLPC     C15      CTL5    -0.350000       12.0110           0
     20603 MEMB     135      SLPC     H15A     HL       0.250000       1.00800           0
     20604 MEMB     135      SLPC     H15B     HL       0.250000       1.00800           0
     20605 MEMB     135      SLPC     H15C     HL       0.250000       1.00800           0
     20606 MEMB     135      SLPC     C12      CTL2    -0.100000       12.0110           0
     20607 MEMB     135      SLPC     H12A     HL       0.250000       1.00800           0
     20608 MEMB     135      SLPC     H12B     HL       0.250000       1.00800           0
     20609 MEMB     135      SLPC     C11      CTL2    -0.800000E-01   12.0110           0
     20610 MEMB     135      SLPC     H11A     HAL2     0.900000E-01   1.00800           0
     20611 MEMB     135      SLPC     H11B     HAL2     0.900000E-01   1.00800           0
     20612 MEMB     135      SLPC     P        PL       1.500000       30.9740           0
     20613 MEMB     135      SLPC     O13      O2L     -0.780000       15.9994           0
     20614 MEMB     135      SLPC     O14      O2L     -0.780000       15.9994           0
     20615 MEMB     135      SLPC     O12      OSLP    -0.570000       15.9994           0
     20616 MEMB     135      SLPC     O11      OSLP    -0.570000       15.9994           0
     20617 MEMB     135      SLPC     C1       CTL2    -0.800000E-01   12.0110           0
     20618 MEMB     135      SLPC     HA       HAL2     0.900000E-01   1.00800           0
     20619 MEMB     135      SLPC     HB       HAL2     0.900000E-01   1.00800           0
     20620 MEMB     135      SLPC     C2       CTL1     0.170000       12.0110           0
     20621 MEMB     135      SLPC     HS       HAL1     0.900000E-01   1.00800           0
     20622 MEMB     135      SLPC     O21      OSL     -0.490000       15.9994           0
     20623 MEMB     135      SLPC     C21      CL       0.900000       12.0110           0
     20624 MEMB     135      SLPC     O22      OBL     -0.630000       15.9994           0
     20625 MEMB     135      SLPC     C22      CTL2    -0.220000       12.0110           0
     20626 MEMB     135      SLPC     H2R      HAL2     0.900000E-01   1.00800           0
     20627 MEMB     135      SLPC     H2S      HAL2     0.900000E-01   1.00800           0
     20628 MEMB     135      SLPC     C3       CTL2     0.800000E-01   12.0110           0
     20629 MEMB     135      SLPC     HX       HAL2     0.900000E-01   1.00800           0
     20630 MEMB     135      SLPC     HY       HAL2     0.900000E-01   1.00800           0
     20631 MEMB     135      SLPC     O31      OSL     -0.490000       15.9994           0
     20632 MEMB     135      SLPC     C31      CL       0.900000       12.0110           0
     20633 MEMB     135      SLPC     O32      OBL     -0.630000       15.9994           0
     20634 MEMB     135      SLPC     C32      CTL2    -0.220000       12.0110           0
     20635 MEMB     135      SLPC     H2X      HAL2     0.900000E-01   1.00800           0
     20636 MEMB     135      SLPC     H2Y      HAL2     0.900000E-01   1.00800           0
     20637 MEMB     135      SLPC     C23      CTL2    -0.180000       12.0110           0
     20638 MEMB     135      SLPC     H3R      HAL2     0.900000E-01   1.00800           0
     20639 MEMB     135      SLPC     H3S      HAL2     0.900000E-01   1.00800           0
     20640 MEMB     135      SLPC     C24      CTL2    -0.180000       12.0110           0
     20641 MEMB     135      SLPC     H4R      HAL2     0.900000E-01   1.00800           0
     20642 MEMB     135      SLPC     H4S      HAL2     0.900000E-01   1.00800           0
     20643 MEMB     135      SLPC     C25      CTL2    -0.180000       12.0110           0
     20644 MEMB     135      SLPC     H5R      HAL2     0.900000E-01   1.00800           0
     20645 MEMB     135      SLPC     H5S      HAL2     0.900000E-01   1.00800           0
     20646 MEMB     135      SLPC     C26      CTL2    -0.180000       12.0110           0
     20647 MEMB     135      SLPC     H6R      HAL2     0.900000E-01   1.00800           0
     20648 MEMB     135      SLPC     H6S      HAL2     0.900000E-01   1.00800           0
     20649 MEMB     135      SLPC     C27      CTL2    -0.180000       12.0110           0
     20650 MEMB     135      SLPC     H7R      HAL2     0.900000E-01   1.00800           0
     20651 MEMB     135      SLPC     H7S      HAL2     0.900000E-01   1.00800           0
     20652 MEMB     135      SLPC     C28      CTL2    -0.180000       12.0110           0
     20653 MEMB     135      SLPC     H8R      HAL2     0.900000E-01   1.00800           0
     20654 MEMB     135      SLPC     H8S      HAL2     0.900000E-01   1.00800           0
     20655 MEMB     135      SLPC     C29      CEL1    -0.150000       12.0110           0
     20656 MEMB     135      SLPC     H9R      HEL1     0.150000       1.00800           0
     20657 MEMB     135      SLPC     C210     CEL1    -0.150000       12.0110           0
     20658 MEMB     135      SLPC     H10R     HEL1     0.150000       1.00800           0
     20659 MEMB     135      SLPC     C211     CTL2    -0.180000       12.0110           0
     20660 MEMB     135      SLPC     H11R     HAL2     0.900000E-01   1.00800           0
     20661 MEMB     135      SLPC     H11S     HAL2     0.900000E-01   1.00800           0
     20662 MEMB     135      SLPC     C212     CEL1    -0.150000       12.0110           0
     20663 MEMB     135      SLPC     H12R     HEL1     0.150000       1.00800           0
     20664 MEMB     135      SLPC     C213     CEL1    -0.150000       12.0110           0
     20665 MEMB     135      SLPC     H13R     HEL1     0.150000       1.00800           0
     20666 MEMB     135      SLPC     C214     CTL2    -0.180000       12.0110           0
     20667 MEMB     135      SLPC     H14R     HAL2     0.900000E-01   1.00800           0
     20668 MEMB     135      SLPC     H14S     HAL2     0.900000E-01   1.00800           0
     20669 MEMB     135      SLPC     C215     CTL2    -0.180000       12.0110           0
     20670 MEMB     135      SLPC     H15R     HAL2     0.900000E-01   1.00800           0
     20671 MEMB     135      SLPC     H15S     HAL2     0.900000E-01   1.00800           0
     20672 MEMB     135      SLPC     C216     CTL2    -0.180000       12.0110           0
     20673 MEMB     135      SLPC     H16R     HAL2     0.900000E-01   1.00800           0
     20674 MEMB     135      SLPC     H16S     HAL2     0.900000E-01   1.00800           0
     20675 MEMB     135      SLPC     C217     CTL2    -0.180000       12.0110           0
     20676 MEMB     135      SLPC     H17R     HAL2     0.900000E-01   1.00800           0
     20677 MEMB     135      SLPC     H17S     HAL2     0.900000E-01   1.00800           0
     20678 MEMB     135      SLPC     C218     CTL3    -0.270000       12.0110           0
     20679 MEMB     135      SLPC     H18R     HAL3     0.900000E-01   1.00800           0
     20680 MEMB     135      SLPC     H18S     HAL3     0.900000E-01   1.00800           0
     20681 MEMB     135      SLPC     H18T     HAL3     0.900000E-01   1.00800           0
     20682 MEMB     135      SLPC     C33      CTL2    -0.180000       12.0110           0
     20683 MEMB     135      SLPC     H3X      HAL2     0.900000E-01   1.00800           0
     20684 MEMB     135      SLPC     H3Y      HAL2     0.900000E-01   1.00800           0
     20685 MEMB     135      SLPC     C34      CTL2    -0.180000       12.0110           0
     20686 MEMB     135      SLPC     H4X      HAL2     0.900000E-01   1.00800           0
     20687 MEMB     135      SLPC     H4Y      HAL2     0.900000E-01   1.00800           0
     20688 MEMB     135      SLPC     C35      CTL2    -0.180000       12.0110           0
     20689 MEMB     135      SLPC     H5X      HAL2     0.900000E-01   1.00800           0
     20690 MEMB     135      SLPC     H5Y      HAL2     0.900000E-01   1.00800           0
     20691 MEMB     135      SLPC     C36      CTL2    -0.180000       12.0110           0
     20692 MEMB     135      SLPC     H6X      HAL2     0.900000E-01   1.00800           0
     20693 MEMB     135      SLPC     H6Y      HAL2     0.900000E-01   1.00800           0
     20694 MEMB     135      SLPC     C37      CTL2    -0.180000       12.0110           0
     20695 MEMB     135      SLPC     H7X      HAL2     0.900000E-01   1.00800           0
     20696 MEMB     135      SLPC     H7Y      HAL2     0.900000E-01   1.00800           0
     20697 MEMB     135      SLPC     C38      CTL2    -0.180000       12.0110           0
     20698 MEMB     135      SLPC     H8X      HAL2     0.900000E-01   1.00800           0
     20699 MEMB     135      SLPC     H8Y      HAL2     0.900000E-01   1.00800           0
     20700 MEMB     135      SLPC     C39      CTL2    -0.180000       12.0110           0
     20701 MEMB     135      SLPC     H9X      HAL2     0.900000E-01   1.00800           0
     20702 MEMB     135      SLPC     H9Y      HAL2     0.900000E-01   1.00800           0
     20703 MEMB     135      SLPC     C310     CTL2    -0.180000       12.0110           0
     20704 MEMB     135      SLPC     H10X     HAL2     0.900000E-01   1.00800           0
     20705 MEMB     135      SLPC     H10Y     HAL2     0.900000E-01   1.00800           0
     20706 MEMB     135      SLPC     C311     CTL2    -0.180000       12.0110           0
     20707 MEMB     135      SLPC     H11X     HAL2     0.900000E-01   1.00800           0
     20708 MEMB     135      SLPC     H11Y     HAL2     0.900000E-01   1.00800           0
     20709 MEMB     135      SLPC     C312     CTL2    -0.180000       12.0110           0
     20710 MEMB     135      SLPC     H12X     HAL2     0.900000E-01   1.00800           0
     20711 MEMB     135      SLPC     H12Y     HAL2     0.900000E-01   1.00800           0
     20712 MEMB     135      SLPC     C313     CTL2    -0.180000       12.0110           0
     20713 MEMB     135      SLPC     H13X     HAL2     0.900000E-01   1.00800           0
     20714 MEMB     135      SLPC     H13Y     HAL2     0.900000E-01   1.00800           0
     20715 MEMB     135      SLPC     C314     CTL2    -0.180000       12.0110           0
     20716 MEMB     135      SLPC     H14X     HAL2     0.900000E-01   1.00800           0
     20717 MEMB     135      SLPC     H14Y     HAL2     0.900000E-01   1.00800           0
     20718 MEMB     135      SLPC     C315     CTL2    -0.180000       12.0110           0
     20719 MEMB     135      SLPC     H15X     HAL2     0.900000E-01   1.00800           0
     20720 MEMB     135      SLPC     H15Y     HAL2     0.900000E-01   1.00800           0
     20721 MEMB     135      SLPC     C316     CTL2    -0.180000       12.0110           0
     20722 MEMB     135      SLPC     H16X     HAL2     0.900000E-01   1.00800           0
     20723 MEMB     135      SLPC     H16Y     HAL2     0.900000E-01   1.00800           0
     20724 MEMB     135      SLPC     C317     CTL2    -0.180000       12.0110           0
     20725 MEMB     135      SLPC     H17X     HAL2     0.900000E-01   1.00800           0
     20726 MEMB     135      SLPC     H17Y     HAL2     0.900000E-01   1.00800           0
     20727 MEMB     135      SLPC     C318     CTL3    -0.270000       12.0110           0
     20728 MEMB     135      SLPC     H18X     HAL3     0.900000E-01   1.00800           0
     20729 MEMB     135      SLPC     H18Y     HAL3     0.900000E-01   1.00800           0
     20730 MEMB     135      SLPC     H18Z     HAL3     0.900000E-01   1.00800           0
     20731 MEMB     142      SLPC     N        NTL     -0.600000       14.0070           0
     20732 MEMB     142      SLPC     C13      CTL5    -0.350000       12.0110           0
     20733 MEMB     142      SLPC     H13A     HL       0.250000       1.00800           0
     20734 MEMB     142      SLPC     H13B     HL       0.250000       1.00800           0
     20735 MEMB     142      SLPC     H13C     HL       0.250000       1.00800           0
     20736 MEMB     142      SLPC     C14      CTL5    -0.350000       12.0110           0
     20737 MEMB     142      SLPC     H14A     HL       0.250000       1.00800           0
     20738 MEMB     142      SLPC     H14B     HL       0.250000       1.00800           0
     20739 MEMB     142      SLPC     H14C     HL       0.250000       1.00800           0
     20740 MEMB     142      SLPC     C15      CTL5    -0.350000       12.0110           0
     20741 MEMB     142      SLPC     H15A     HL       0.250000       1.00800           0
     20742 MEMB     142      SLPC     H15B     HL       0.250000       1.00800           0
     20743 MEMB     142      SLPC     H15C     HL       0.250000       1.00800           0
     20744 MEMB     142      SLPC     C12      CTL2    -0.100000       12.0110           0
     20745 MEMB     142      SLPC     H12A     HL       0.250000       1.00800           0
     20746 MEMB     142      SLPC     H12B     HL       0.250000       1.00800           0
     20747 MEMB     142      SLPC     C11      CTL2    -0.800000E-01   12.0110           0
     20748 MEMB     142      SLPC     H11A     HAL2     0.900000E-01   1.00800           0
     20749 MEMB     142      SLPC     H11B     HAL2     0.900000E-01   1.00800           0
     20750 MEMB     142      SLPC     P        PL       1.500000       30.9740           0
     20751 MEMB     142      SLPC     O13      O2L     -0.780000       15.9994           0
     20752 MEMB     142      SLPC     O14      O2L     -0.780000       15.9994           0
     20753 MEMB     142      SLPC     O12      OSLP    -0.570000       15.9994           0
     20754 MEMB     142      SLPC     O11      OSLP    -0.570000       15.9994           0
     20755 MEMB     142      SLPC     C1       CTL2    -0.800000E-01   12.0110           0
     20756 MEMB     142      SLPC     HA       HAL2     0.900000E-01   1.00800           0
     20757 MEMB     142      SLPC     HB       HAL2     0.900000E-01   1.00800           0
     20758 MEMB     142      SLPC     C2       CTL1     0.170000       12.0110           0
     20759 MEMB     142      SLPC     HS       HAL1     0.900000E-01   1.00800           0
     20760 MEMB     142      SLPC     O21      OSL     -0.490000       15.9994           0
     20761 MEMB     142      SLPC     C21      CL       0.900000       12.0110           0
     20762 MEMB     142      SLPC     O22      OBL     -0.630000       15.9994           0
     20763 MEMB     142      SLPC     C22      CTL2    -0.220000       12.0110           0
     20764 MEMB     142      SLPC     H2R      HAL2     0.900000E-01   1.00800           0
     20765 MEMB     142      SLPC     H2S      HAL2     0.900000E-01   1.00800           0
     20766 MEMB     142      SLPC     C3       CTL2     0.800000E-01   12.0110           0
     20767 MEMB     142      SLPC     HX       HAL2     0.900000E-01   1.00800           0
     20768 MEMB     142      SLPC     HY       HAL2     0.900000E-01   1.00800           0
     20769 MEMB     142      SLPC     O31      OSL     -0.490000       15.9994           0
     20770 MEMB     142      SLPC     C31      CL       0.900000       12.0110           0
     20771 MEMB     142      SLPC     O32      OBL     -0.630000       15.9994           0
     20772 MEMB     142      SLPC     C32      CTL2    -0.220000       12.0110           0
     20773 MEMB     142      SLPC     H2X      HAL2     0.900000E-01   1.00800           0
     20774 MEMB     142      SLPC     H2Y      HAL2     0.900000E-01   1.00800           0
     20775 MEMB     142      SLPC     C23      CTL2    -0.180000       12.0110           0
     20776 MEMB     142      SLPC     H3R      HAL2     0.900000E-01   1.00800           0
     20777 MEMB     142      SLPC     H3S      HAL2     0.900000E-01   1.00800           0
     20778 MEMB     142      SLPC     C24      CTL2    -0.180000       12.0110           0
     20779 MEMB     142      SLPC     H4R      HAL2     0.900000E-01   1.00800           0
     20780 MEMB     142      SLPC     H4S      HAL2     0.900000E-01   1.00800           0
     20781 MEMB     142      SLPC     C25      CTL2    -0.180000       12.0110           0
     20782 MEMB     142      SLPC     H5R      HAL2     0.900000E-01   1.00800           0
     20783 MEMB     142      SLPC     H5S      HAL2     0.900000E-01   1.00800           0
     20784 MEMB     142      SLPC     C26      CTL2    -0.180000       12.0110           0
     20785 MEMB     142      SLPC     H6R      HAL2     0.900000E-01   1.00800           0
     20786 MEMB     142      SLPC     H6S      HAL2     0.900000E-01   1.00800           0
     20787 MEMB     142      SLPC     C27      CTL2    -0.180000       12.0110           0
     20788 MEMB     142      SLPC     H7R      HAL2     0.900000E-01   1.00800           0
     20789 MEMB     142      SLPC     H7S      HAL2     0.900000E-01   1.00800           0
     20790 MEMB     142      SLPC     C28      CTL2    -0.180000       12.0110           0
     20791 MEMB     142      SLPC     H8R      HAL2     0.900000E-01   1.00800           0
     20792 MEMB     142      SLPC     H8S      HAL2     0.900000E-01   1.00800           0
     20793 MEMB     142      SLPC     C29      CEL1    -0.150000       12.0110           0
     20794 MEMB     142      SLPC     H9R      HEL1     0.150000       1.00800           0
     20795 MEMB     142      SLPC     C210     CEL1    -0.150000       12.0110           0
     20796 MEMB     142      SLPC     H10R     HEL1     0.150000       1.00800           0
     20797 MEMB     142      SLPC     C211     CTL2    -0.180000       12.0110           0
     20798 MEMB     142      SLPC     H11R     HAL2     0.900000E-01   1.00800           0
     20799 MEMB     142      SLPC     H11S     HAL2     0.900000E-01   1.00800           0
     20800 MEMB     142      SLPC     C212     CEL1    -0.150000       12.0110           0
     20801 MEMB     142      SLPC     H12R     HEL1     0.150000       1.00800           0
     20802 MEMB     142      SLPC     C213     CEL1    -0.150000       12.0110           0
     20803 MEMB     142      SLPC     H13R     HEL1     0.150000       1.00800           0
     20804 MEMB     142      SLPC     C214     CTL2    -0.180000       12.0110           0
     20805 MEMB     142      SLPC     H14R     HAL2     0.900000E-01   1.00800           0
     20806 MEMB     142      SLPC     H14S     HAL2     0.900000E-01   1.00800           0
     20807 MEMB     142      SLPC     C215     CTL2    -0.180000       12.0110           0
     20808 MEMB     142      SLPC     H15R     HAL2     0.900000E-01   1.00800           0
     20809 MEMB     142      SLPC     H15S     HAL2     0.900000E-01   1.00800           0
     20810 MEMB     142      SLPC     C216     CTL2    -0.180000       12.0110           0
     20811 MEMB     142      SLPC     H16R     HAL2     0.900000E-01   1.00800           0
     20812 MEMB     142      SLPC     H16S     HAL2     0.900000E-01   1.00800           0
     20813 MEMB     142      SLPC     C217     CTL2    -0.180000       12.0110           0
     20814 MEMB     142      SLPC     H17R     HAL2     0.900000E-01   1.00800           0
     20815 MEMB     142      SLPC     H17S     HAL2     0.900000E-01   1.00800           0
     20816 MEMB     142      SLPC     C218     CTL3    -0.270000       12.0110           0
     20817 MEMB     142      SLPC     H18R     HAL3     0.900000E-01   1.00800           0
     20818 MEMB     142      SLPC     H18S     HAL3     0.900000E-01   1.00800           0
     20819 MEMB     142      SLPC     H18T     HAL3     0.900000E-01   1.00800           0
     20820 MEMB     142      SLPC     C33      CTL2    -0.180000       12.0110           0
     20821 MEMB     142      SLPC     H3X      HAL2     0.900000E-01   1.00800           0
     20822 MEMB     142      SLPC     H3Y      HAL2     0.900000E-01   1.00800           0
     20823 MEMB     142      SLPC     C34      CTL2    -0.180000       12.0110           0
     20824 MEMB     142      SLPC     H4X      HAL2     0.900000E-01   1.00800           0
     20825 MEMB     142      SLPC     H4Y      HAL2     0.900000E-01   1.00800           0
     20826 MEMB     142      SLPC     C35      CTL2    -0.180000       12.0110           0
     20827 MEMB     142      SLPC     H5X      HAL2     0.900000E-01   1.00800           0
     20828 MEMB     142      SLPC     H5Y      HAL2     0.900000E-01   1.00800           0
     20829 MEMB     142      SLPC     C36      CTL2    -0.180000       12.0110           0
     20830 MEMB     142      SLPC     H6X      HAL2     0.900000E-01   1.00800           0
     20831 MEMB     142      SLPC     H6Y      HAL2     0.900000E-01   1.00800           0
     20832 MEMB     142      SLPC     C37      CTL2    -0.180000       12.0110           0
     20833 MEMB     142      SLPC     H7X      HAL2     0.900000E-01   1.00800           0
     20834 MEMB     142      SLPC     H7Y      HAL2     0.900000E-01   1.00800           0
     20835 MEMB     142      SLPC     C38      CTL2    -0.180000       12.0110           0
     20836 MEMB     142      SLPC     H8X      HAL2     0.900000E-01   1.00800           0
     20837 MEMB     142      SLPC     H8Y      HAL2     0.900000E-01   1.00800           0
     20838 MEMB     142      SLPC     C39      CTL2    -0.180000       12.0110           0
     20839 MEMB     142      SLPC     H9X      HAL2     0.900000E-01   1.00800           0
     20840 MEMB     142      SLPC     H9Y      HAL2     0.900000E-01   1.00800           0
     20841 MEMB     142      SLPC     C310     CTL2    -0.180000       12.0110           0
     20842 MEMB     142      SLPC     H10X     HAL2     0.900000E-01   1.00800           0
     20843 MEMB     142      SLPC     H10Y     HAL2     0.900000E-01   1.00800           0
     20844 MEMB     142      SLPC     C311     CTL2    -0.180000       12.0110           0
     20845 MEMB     142      SLPC     H11X     HAL2     0.900000E-01   1.00800           0
     20846 MEMB     142      SLPC     H11Y     HAL2     0.900000E-01   1.00800           0
     20847 MEMB     142      SLPC     C312     CTL2    -0.180000       12.0110           0
     20848 MEMB     142      SLPC     H12X     HAL2     0.900000E-01   1.00800           0
     20849 MEMB     142      SLPC     H12Y     HAL2     0.900000E-01   1.00800           0
     20850 MEMB     142      SLPC     C313     CTL2    -0.180000       12.0110           0
     20851 MEMB     142      SLPC     H13X     HAL2     0.900000E-01   1.00800           0
     20852 MEMB     142      SLPC     H13Y     HAL2     0.900000E-01   1.00800           0
     20853 MEMB     142      SLPC     C314     CTL2    -0.180000       12.0110           0
     20854 MEMB     142      SLPC     H14X     HAL2     0.900000E-01   1.00800           0
     20855 MEMB     142      SLPC     H14Y     HAL2     0.900000E-01   1.00800           0
     20856 MEMB     142      SLPC     C315     CTL2    -0.180000       12.0110           0
     20857 MEMB     142      SLPC     H15X     HAL2     0.900000E-01   1.00800           0
     20858 MEMB     142      SLPC     H15Y     HAL2     0.900000E-01   1.00800           0
     20859 MEMB     142      SLPC     C316     CTL2    -0.180000       12.0110           0
     20860 MEMB     142      SLPC     H16X     HAL2     0.900000E-01   1.00800           0
     20861 MEMB     142      SLPC     H16Y     HAL2     0.900000E-01   1.00800           0
     20862 MEMB     142      SLPC     C317     CTL2    -0.180000       12.0110           0
     20863 MEMB     142      SLPC     H17X     HAL2     0.900000E-01   1.00800           0
     20864 MEMB     142      SLPC     H17Y     HAL2     0.900000E-01   1.00800           0
     20865 MEMB     142      SLPC     C318     CTL3    -0.270000       12.0110           0
     20866 MEMB     142      SLPC     H18X     HAL3     0.900000E-01   1.00800           0
     20867 MEMB     142      SLPC     H18Y     HAL3     0.900000E-01   1.00800           0
     20868 MEMB     142      SLPC     H18Z     HAL3     0.900000E-01   1.00800           0
     20869 MEMB     172      SLPC     N        NTL     -0.600000       14.0070           0
     20870 MEMB     172      SLPC     C13      CTL5    -0.350000       12.0110           0
     20871 MEMB     172      SLPC     H13A     HL       0.250000       1.00800           0
     20872 MEMB     172      SLPC     H13B     HL       0.250000       1.00800           0
     20873 MEMB     172      SLPC     H13C     HL       0.250000       1.00800           0
     20874 MEMB     172      SLPC     C14      CTL5    -0.350000       12.0110           0
     20875 MEMB     172      SLPC     H14A     HL       0.250000       1.00800           0
     20876 MEMB     172      SLPC     H14B     HL       0.250000       1.00800           0
     20877 MEMB     172      SLPC     H14C     HL       0.250000       1.00800           0
     20878 MEMB     172      SLPC     C15      CTL5    -0.350000       12.0110           0
     20879 MEMB     172      SLPC     H15A     HL       0.250000       1.00800           0
     20880 MEMB     172      SLPC     H15B     HL       0.250000       1.00800           0
     20881 MEMB     172      SLPC     H15C     HL       0.250000       1.00800           0
     20882 MEMB     172      SLPC     C12      CTL2    -0.100000       12.0110           0
     20883 MEMB     172      SLPC     H12A     HL       0.250000       1.00800           0
     20884 MEMB     172      SLPC     H12B     HL       0.250000       1.00800           0
     20885 MEMB     172      SLPC     C11      CTL2    -0.800000E-01   12.0110           0
     20886 MEMB     172      SLPC     H11A     HAL2     0.900000E-01   1.00800           0
     20887 MEMB     172      SLPC     H11B     HAL2     0.900000E-01   1.00800           0
     20888 MEMB     172      SLPC     P        PL       1.500000       30.9740           0
     20889 MEMB     172      SLPC     O13      O2L     -0.780000       15.9994           0
     20890 MEMB     172      SLPC     O14      O2L     -0.780000       15.9994           0
     20891 MEMB     172      SLPC     O12      OSLP    -0.570000       15.9994           0
     20892 MEMB     172      SLPC     O11      OSLP    -0.570000       15.9994           0
     20893 MEMB     172      SLPC     C1       CTL2    -0.800000E-01   12.0110           0
     20894 MEMB     172      SLPC     HA       HAL2     0.900000E-01   1.00800           0
     20895 MEMB     172      SLPC     HB       HAL2     0.900000E-01   1.00800           0
     20896 MEMB     172      SLPC     C2       CTL1     0.170000       12.0110           0
     20897 MEMB     172      SLPC     HS       HAL1     0.900000E-01   1.00800           0
     20898 MEMB     172      SLPC     O21      OSL     -0.490000       15.9994           0
     20899 MEMB     172      SLPC     C21      CL       0.900000       12.0110           0
     20900 MEMB     172      SLPC     O22      OBL     -0.630000       15.9994           0
     20901 MEMB     172      SLPC     C22      CTL2    -0.220000       12.0110           0
     20902 MEMB     172      SLPC     H2R      HAL2     0.900000E-01   1.00800           0
     20903 MEMB     172      SLPC     H2S      HAL2     0.900000E-01   1.00800           0
     20904 MEMB     172      SLPC     C3       CTL2     0.800000E-01   12.0110           0
     20905 MEMB     172      SLPC     HX       HAL2     0.900000E-01   1.00800           0
     20906 MEMB     172      SLPC     HY       HAL2     0.900000E-01   1.00800           0
     20907 MEMB     172      SLPC     O31      OSL     -0.490000       15.9994           0
     20908 MEMB     172      SLPC     C31      CL       0.900000       12.0110           0
     20909 MEMB     172      SLPC     O32      OBL     -0.630000       15.9994           0
     20910 MEMB     172      SLPC     C32      CTL2    -0.220000       12.0110           0
     20911 MEMB     172      SLPC     H2X      HAL2     0.900000E-01   1.00800           0
     20912 MEMB     172      SLPC     H2Y      HAL2     0.900000E-01   1.00800           0
     20913 MEMB     172      SLPC     C23      CTL2    -0.180000       12.0110           0
     20914 MEMB     172      SLPC     H3R      HAL2     0.900000E-01   1.00800           0
     20915 MEMB     172      SLPC     H3S      HAL2     0.900000E-01   1.00800           0
     20916 MEMB     172      SLPC     C24      CTL2    -0.180000       12.0110           0
     20917 MEMB     172      SLPC     H4R      HAL2     0.900000E-01   1.00800           0
     20918 MEMB     172      SLPC     H4S      HAL2     0.900000E-01   1.00800           0
     20919 MEMB     172      SLPC     C25      CTL2    -0.180000       12.0110           0
     20920 MEMB     172      SLPC     H5R      HAL2     0.900000E-01   1.00800           0
     20921 MEMB     172      SLPC     H5S      HAL2     0.900000E-01   1.00800           0
     20922 MEMB     172      SLPC     C26      CTL2    -0.180000       12.0110           0
     20923 MEMB     172      SLPC     H6R      HAL2     0.900000E-01   1.00800           0
     20924 MEMB     172      SLPC     H6S      HAL2     0.900000E-01   1.00800           0
     20925 MEMB     172      SLPC     C27      CTL2    -0.180000       12.0110           0
     20926 MEMB     172      SLPC     H7R      HAL2     0.900000E-01   1.00800           0
     20927 MEMB     172      SLPC     H7S      HAL2     0.900000E-01   1.00800           0
     20928 MEMB     172      SLPC     C28      CTL2    -0.180000       12.0110           0
     20929 MEMB     172      SLPC     H8R      HAL2     0.900000E-01   1.00800           0
     20930 MEMB     172      SLPC     H8S      HAL2     0.900000E-01   1.00800           0
     20931 MEMB     172      SLPC     C29      CEL1    -0.150000       12.0110           0
     20932 MEMB     172      SLPC     H9R      HEL1     0.150000       1.00800           0
     20933 MEMB     172      SLPC     C210     CEL1    -0.150000       12.0110           0
     20934 MEMB     172      SLPC     H10R     HEL1     0.150000       1.00800           0
     20935 MEMB     172      SLPC     C211     CTL2    -0.180000       12.0110           0
     20936 MEMB     172      SLPC     H11R     HAL2     0.900000E-01   1.00800           0
     20937 MEMB     172      SLPC     H11S     HAL2     0.900000E-01   1.00800           0
     20938 MEMB     172      SLPC     C212     CEL1    -0.150000       12.0110           0
     20939 MEMB     172      SLPC     H12R     HEL1     0.150000       1.00800           0
     20940 MEMB     172      SLPC     C213     CEL1    -0.150000       12.0110           0
     20941 MEMB     172      SLPC     H13R     HEL1     0.150000       1.00800           0
     20942 MEMB     172      SLPC     C214     CTL2    -0.180000       12.0110           0
     20943 MEMB     172      SLPC     H14R     HAL2     0.900000E-01   1.00800           0
     20944 MEMB     172      SLPC     H14S     HAL2     0.900000E-01   1.00800           0
     20945 MEMB     172      SLPC     C215     CTL2    -0.180000       12.0110           0
     20946 MEMB     172      SLPC     H15R     HAL2     0.900000E-01   1.00800           0
     20947 MEMB     172      SLPC     H15S     HAL2     0.900000E-01   1.00800           0
     20948 MEMB     172      SLPC     C216     CTL2    -0.180000       12.0110           0
     20949 MEMB     172      SLPC     H16R     HAL2     0.900000E-01   1.00800           0
     20950 MEMB     172      SLPC     H16S     HAL2     0.900000E-01   1.00800           0
     20951 MEMB     172      SLPC     C217     CTL2    -0.180000       12.0110           0
     20952 MEMB     172      SLPC     H17R     HAL2     0.900000E-01   1.00800           0
     20953 MEMB     172      SLPC     H17S     HAL2     0.900000E-01   1.00800           0
     20954 MEMB     172      SLPC     C218     CTL3    -0.270000       12.0110           0
     20955 MEMB     172      SLPC     H18R     HAL3     0.900000E-01   1.00800           0
     20956 MEMB     172      SLPC     H18S     HAL3     0.900000E-01   1.00800           0
     20957 MEMB     172      SLPC     H18T     HAL3     0.900000E-01   1.00800           0
     20958 MEMB     172      SLPC     C33      CTL2    -0.180000       12.0110           0
     20959 MEMB     172      SLPC     H3X      HAL2     0.900000E-01   1.00800           0
     20960 MEMB     172      SLPC     H3Y      HAL2     0.900000E-01   1.00800           0
     20961 MEMB     172      SLPC     C34      CTL2    -0.180000       12.0110           0
     20962 MEMB     172      SLPC     H4X      HAL2     0.900000E-01   1.00800           0
     20963 MEMB     172      SLPC     H4Y      HAL2     0.900000E-01   1.00800           0
     20964 MEMB     172      SLPC     C35      CTL2    -0.180000       12.0110           0
     20965 MEMB     172      SLPC     H5X      HAL2     0.900000E-01   1.00800           0
     20966 MEMB     172      SLPC     H5Y      HAL2     0.900000E-01   1.00800           0
     20967 MEMB     172      SLPC     C36      CTL2    -0.180000       12.0110           0
     20968 MEMB     172      SLPC     H6X      HAL2     0.900000E-01   1.00800           0
     20969 MEMB     172      SLPC     H6Y      HAL2     0.900000E-01   1.00800           0
     20970 MEMB     172      SLPC     C37      CTL2    -0.180000       12.0110           0
     20971 MEMB     172      SLPC     H7X      HAL2     0.900000E-01   1.00800           0
     20972 MEMB     172      SLPC     H7Y      HAL2     0.900000E-01   1.00800           0
     20973 MEMB     172      SLPC     C38      CTL2    -0.180000       12.0110           0
     20974 MEMB     172      SLPC     H8X      HAL2     0.900000E-01   1.00800           0
     20975 MEMB     172      SLPC     H8Y      HAL2     0.900000E-01   1.00800           0
     20976 MEMB     172      SLPC     C39      CTL2    -0.180000       12.0110           0
     20977 MEMB     172      SLPC     H9X      HAL2     0.900000E-01   1.00800           0
     20978 MEMB     172      SLPC     H9Y      HAL2     0.900000E-01   1.00800           0
     20979 MEMB     172      SLPC     C310     CTL2    -0.180000       12.0110           0
     20980 MEMB     172      SLPC     H10X     HAL2     0.900000E-01   1.00800           0
     20981 MEMB     172      SLPC     H10Y     HAL2     0.900000E-01   1.00800           0
     20982 MEMB     172      SLPC     C311     CTL2    -0.180000       12.0110           0
     20983 MEMB     172      SLPC     H11X     HAL2     0.900000E-01   1.00800           0
     20984 MEMB     172      SLPC     H11Y     HAL2     0.900000E-01   1.00800           0
     20985 MEMB     172      SLPC     C312     CTL2    -0.180000       12.0110           0
     20986 MEMB     172      SLPC     H12X     HAL2     0.900000E-01   1.00800           0
     20987 MEMB     172      SLPC     H12Y     HAL2     0.900000E-01   1.00800           0
     20988 MEMB     172      SLPC     C313     CTL2    -0.180000       12.0110           0
     20989 MEMB     172      SLPC     H13X     HAL2     0.900000E-01   1.00800           0
     20990 MEMB     172      SLPC     H13Y     HAL2     0.900000E-01   1.00800           0
     20991 MEMB     172      SLPC     C314     CTL2    -0.180000       12.0110           0
     20992 MEMB     172      SLPC     H14X     HAL2     0.900000E-01   1.00800           0
     20993 MEMB     172      SLPC     H14Y     HAL2     0.900000E-01   1.00800           0
     20994 MEMB     172      SLPC     C315     CTL2    -0.180000       12.0110           0
     20995 MEMB     172      SLPC     H15X     HAL2     0.900000E-01   1.00800           0
     20996 MEMB     172      SLPC     H15Y     HAL2     0.900000E-01   1.00800           0
     20997 MEMB     172      SLPC     C316     CTL2    -0.180000       12.0110           0
     20998 MEMB     172      SLPC     H16X     HAL2     0.900000E-01   1.00800           0
     20999 MEMB     172      SLPC     H16Y     HAL2     0.900000E-01   1.00800           0
     21000 MEMB     172      SLPC     C317     CTL2    -0.180000       12.0110           0
     21001 MEMB     172      SLPC     H17X     HAL2     0.900000E-01   1.00800           0
     21002 MEMB     172      SLPC     H17Y     HAL2     0.900000E-01   1.00800           0
     21003 MEMB     172      SLPC     C318     CTL3    -0.270000       12.0110           0
     21004 MEMB     172      SLPC     H18X     HAL3     0.900000E-01   1.00800           0
     21005 MEMB     172      SLPC     H18Y     HAL3     0.900000E-01   1.00800           0
     21006 MEMB     172      SLPC     H18Z     HAL3     0.900000E-01   1.00800           0
     21007 MEMB     178      SLPC     N        NTL     -0.600000       14.0070           0
     21008 MEMB     178      SLPC     C13      CTL5    -0.350000       12.0110           0
     21009 MEMB     178      SLPC     H13A     HL       0.250000       1.00800           0
     21010 MEMB     178      SLPC     H13B     HL       0.250000       1.00800           0
     21011 MEMB     178      SLPC     H13C     HL       0.250000       1.00800           0
     21012 MEMB     178      SLPC     C14      CTL5    -0.350000       12.0110           0
     21013 MEMB     178      SLPC     H14A     HL       0.250000       1.00800           0
     21014 MEMB     178      SLPC     H14B     HL       0.250000       1.00800           0
     21015 MEMB     178      SLPC     H14C     HL       0.250000       1.00800           0
     21016 MEMB     178      SLPC     C15      CTL5    -0.350000       12.0110           0
     21017 MEMB     178      SLPC     H15A     HL       0.250000       1.00800           0
     21018 MEMB     178      SLPC     H15B     HL       0.250000       1.00800           0
     21019 MEMB     178      SLPC     H15C     HL       0.250000       1.00800           0
     21020 MEMB     178      SLPC     C12      CTL2    -0.100000       12.0110           0
     21021 MEMB     178      SLPC     H12A     HL       0.250000       1.00800           0
     21022 MEMB     178      SLPC     H12B     HL       0.250000       1.00800           0
     21023 MEMB     178      SLPC     C11      CTL2    -0.800000E-01   12.0110           0
     21024 MEMB     178      SLPC     H11A     HAL2     0.900000E-01   1.00800           0
     21025 MEMB     178      SLPC     H11B     HAL2     0.900000E-01   1.00800           0
     21026 MEMB     178      SLPC     P        PL       1.500000       30.9740           0
     21027 MEMB     178      SLPC     O13      O2L     -0.780000       15.9994           0
     21028 MEMB     178      SLPC     O14      O2L     -0.780000       15.9994           0
     21029 MEMB     178      SLPC     O12      OSLP    -0.570000       15.9994           0
     21030 MEMB     178      SLPC     O11      OSLP    -0.570000       15.9994           0
     21031 MEMB     178      SLPC     C1       CTL2    -0.800000E-01   12.0110           0
     21032 MEMB     178      SLPC     HA       HAL2     0.900000E-01   1.00800           0
     21033 MEMB     178      SLPC     HB       HAL2     0.900000E-01   1.00800           0
     21034 MEMB     178      SLPC     C2       CTL1     0.170000       12.0110           0
     21035 MEMB     178      SLPC     HS       HAL1     0.900000E-01   1.00800           0
     21036 MEMB     178      SLPC     O21      OSL     -0.490000       15.9994           0
     21037 MEMB     178      SLPC     C21      CL       0.900000       12.0110           0
     21038 MEMB     178      SLPC     O22      OBL     -0.630000       15.9994           0
     21039 MEMB     178      SLPC     C22      CTL2    -0.220000       12.0110           0
     21040 MEMB     178      SLPC     H2R      HAL2     0.900000E-01   1.00800           0
     21041 MEMB     178      SLPC     H2S      HAL2     0.900000E-01   1.00800           0
     21042 MEMB     178      SLPC     C3       CTL2     0.800000E-01   12.0110           0
     21043 MEMB     178      SLPC     HX       HAL2     0.900000E-01   1.00800           0
     21044 MEMB     178      SLPC     HY       HAL2     0.900000E-01   1.00800           0
     21045 MEMB     178      SLPC     O31      OSL     -0.490000       15.9994           0
     21046 MEMB     178      SLPC     C31      CL       0.900000       12.0110           0
     21047 MEMB     178      SLPC     O32      OBL     -0.630000       15.9994           0
     21048 MEMB     178      SLPC     C32      CTL2    -0.220000       12.0110           0
     21049 MEMB     178      SLPC     H2X      HAL2     0.900000E-01   1.00800           0
     21050 MEMB     178      SLPC     H2Y      HAL2     0.900000E-01   1.00800           0
     21051 MEMB     178      SLPC     C23      CTL2    -0.180000       12.0110           0
     21052 MEMB     178      SLPC     H3R      HAL2     0.900000E-01   1.00800           0
     21053 MEMB     178      SLPC     H3S      HAL2     0.900000E-01   1.00800           0
     21054 MEMB     178      SLPC     C24      CTL2    -0.180000       12.0110           0
     21055 MEMB     178      SLPC     H4R      HAL2     0.900000E-01   1.00800           0
     21056 MEMB     178      SLPC     H4S      HAL2     0.900000E-01   1.00800           0
     21057 MEMB     178      SLPC     C25      CTL2    -0.180000       12.0110           0
     21058 MEMB     178      SLPC     H5R      HAL2     0.900000E-01   1.00800           0
     21059 MEMB     178      SLPC     H5S      HAL2     0.900000E-01   1.00800           0
     21060 MEMB     178      SLPC     C26      CTL2    -0.180000       12.0110           0
     21061 MEMB     178      SLPC     H6R      HAL2     0.900000E-01   1.00800           0
     21062 MEMB     178      SLPC     H6S      HAL2     0.900000E-01   1.00800           0
     21063 MEMB     178      SLPC     C27      CTL2    -0.180000       12.0110           0
     21064 MEMB     178      SLPC     H7R      HAL2     0.900000E-01   1.00800           0
     21065 MEMB     178      SLPC     H7S      HAL2     0.900000E-01   1.00800           0
     21066 MEMB     178      SLPC     C28      CTL2    -0.180000       12.0110           0
     21067 MEMB     178      SLPC     H8R      HAL2     0.900000E-01   1.00800           0
     21068 MEMB     178      SLPC     H8S      HAL2     0.900000E-01   1.00800           0
     21069 MEMB     178      SLPC     C29      CEL1    -0.150000       12.0110           0
     21070 MEMB     178      SLPC     H9R      HEL1     0.150000       1.00800           0
     21071 MEMB     178      SLPC     C210     CEL1    -0.150000       12.0110           0
     21072 MEMB     178      SLPC     H10R     HEL1     0.150000       1.00800           0
     21073 MEMB     178      SLPC     C211     CTL2    -0.180000       12.0110           0
     21074 MEMB     178      SLPC     H11R     HAL2     0.900000E-01   1.00800           0
     21075 MEMB     178      SLPC     H11S     HAL2     0.900000E-01   1.00800           0
     21076 MEMB     178      SLPC     C212     CEL1    -0.150000       12.0110           0
     21077 MEMB     178      SLPC     H12R     HEL1     0.150000       1.00800           0
     21078 MEMB     178      SLPC     C213     CEL1    -0.150000       12.0110           0
     21079 MEMB     178      SLPC     H13R     HEL1     0.150000       1.00800           0
     21080 MEMB     178      SLPC     C214     CTL2    -0.180000       12.0110           0
     21081 MEMB     178      SLPC     H14R     HAL2     0.900000E-01   1.00800           0
     21082 MEMB     178      SLPC     H14S     HAL2     0.900000E-01   1.00800           0
     21083 MEMB     178      SLPC     C215     CTL2    -0.180000       12.0110           0
     21084 MEMB     178      SLPC     H15R     HAL2     0.900000E-01   1.00800           0
     21085 MEMB     178      SLPC     H15S     HAL2     0.900000E-01   1.00800           0
     21086 MEMB     178      SLPC     C216     CTL2    -0.180000       12.0110           0
     21087 MEMB     178      SLPC     H16R     HAL2     0.900000E-01   1.00800           0
     21088 MEMB     178      SLPC     H16S     HAL2     0.900000E-01   1.00800           0
     21089 MEMB     178      SLPC     C217     CTL2    -0.180000       12.0110           0
     21090 MEMB     178      SLPC     H17R     HAL2     0.900000E-01   1.00800           0
     21091 MEMB     178      SLPC     H17S     HAL2     0.900000E-01   1.00800           0
     21092 MEMB     178      SLPC     C218     CTL3    -0.270000       12.0110           0
     21093 MEMB     178      SLPC     H18R     HAL3     0.900000E-01   1.00800           0
     21094 MEMB     178      SLPC     H18S     HAL3     0.900000E-01   1.00800           0
     21095 MEMB     178      SLPC     H18T     HAL3     0.900000E-01   1.00800           0
     21096 MEMB     178      SLPC     C33      CTL2    -0.180000       12.0110           0
     21097 MEMB     178      SLPC     H3X      HAL2     0.900000E-01   1.00800           0
     21098 MEMB     178      SLPC     H3Y      HAL2     0.900000E-01   1.00800           0
     21099 MEMB     178      SLPC     C34      CTL2    -0.180000       12.0110           0
     21100 MEMB     178      SLPC     H4X      HAL2     0.900000E-01   1.00800           0
     21101 MEMB     178      SLPC     H4Y      HAL2     0.900000E-01   1.00800           0
     21102 MEMB     178      SLPC     C35      CTL2    -0.180000       12.0110           0
     21103 MEMB     178      SLPC     H5X      HAL2     0.900000E-01   1.00800           0
     21104 MEMB     178      SLPC     H5Y      HAL2     0.900000E-01   1.00800           0
     21105 MEMB     178      SLPC     C36      CTL2    -0.180000       12.0110           0
     21106 MEMB     178      SLPC     H6X      HAL2     0.900000E-01   1.00800           0
     21107 MEMB     178      SLPC     H6Y      HAL2     0.900000E-01   1.00800           0
     21108 MEMB     178      SLPC     C37      CTL2    -0.180000       12.0110           0
     21109 MEMB     178      SLPC     H7X      HAL2     0.900000E-01   1.00800           0
     21110 MEMB     178      SLPC     H7Y      HAL2     0.900000E-01   1.00800           0
     21111 MEMB     178      SLPC     C38      CTL2    -0.180000       12.0110           0
     21112 MEMB     178      SLPC     H8X      HAL2     0.900000E-01   1.00800           0
     21113 MEMB     178      SLPC     H8Y      HAL2     0.900000E-01   1.00800           0
     21114 MEMB     178      SLPC     C39      CTL2    -0.180000       12.0110           0
     21115 MEMB     178      SLPC     H9X      HAL2     0.900000E-01   1.00800           0
     21116 MEMB     178      SLPC     H9Y      HAL2     0.900000E-01   1.00800           0
     21117 MEMB     178      SLPC     C310     CTL2    -0.180000       12.0110           0
     21118 MEMB     178      SLPC     H10X     HAL2     0.900000E-01   1.00800           0
     21119 MEMB     178      SLPC     H10Y     HAL2     0.900000E-01   1.00800           0
     21120 MEMB     178      SLPC     C311     CTL2    -0.180000       12.0110           0
     21121 MEMB     178      SLPC     H11X     HAL2     0.900000E-01   1.00800           0
     21122 MEMB     178      SLPC     H11Y     HAL2     0.900000E-01   1.00800           0
     21123 MEMB     178      SLPC     C312     CTL2    -0.180000       12.0110           0
     21124 MEMB     178      SLPC     H12X     HAL2     0.900000E-01   1.00800           0
     21125 MEMB     178      SLPC     H12Y     HAL2     0.900000E-01   1.00800           0
     21126 MEMB     178      SLPC     C313     CTL2    -0.180000       12.0110           0
     21127 MEMB     178      SLPC     H13X     HAL2     0.900000E-01   1.00800           0
     21128 MEMB     178      SLPC     H13Y     HAL2     0.900000E-01   1.00800           0
     21129 MEMB     178      SLPC     C314     CTL2    -0.180000       12.0110           0
     21130 MEMB     178      SLPC     H14X     HAL2     0.900000E-01   1.00800           0
     21131 MEMB     178      SLPC     H14Y     HAL2     0.900000E-01   1.00800           0
     21132 MEMB     178      SLPC     C315     CTL2    -0.180000       12.0110           0
     21133 MEMB     178      SLPC     H15X     HAL2     0.900000E-01   1.00800           0
     21134 MEMB     178      SLPC     H15Y     HAL2     0.900000E-01   1.00800           0
     21135 MEMB     178      SLPC     C316     CTL2    -0.180000       12.0110           0
     21136 MEMB     178      SLPC     H16X     HAL2     0.900000E-01   1.00800           0
     21137 MEMB     178      SLPC     H16Y     HAL2     0.900000E-01   1.00800           0
     21138 MEMB     178      SLPC     C317     CTL2    -0.180000       12.0110           0
     21139 MEMB     178      SLPC     H17X     HAL2     0.900000E-01   1.00800           0
     21140 MEMB     178      SLPC     H17Y     HAL2     0.900000E-01   1.00800           0
     21141 MEMB     178      SLPC     C318     CTL3    -0.270000       12.0110           0
     21142 MEMB     178      SLPC     H18X     HAL3     0.900000E-01   1.00800           0
     21143 MEMB     178      SLPC     H18Y     HAL3     0.900000E-01   1.00800           0
     21144 MEMB     178      SLPC     H18Z     HAL3     0.900000E-01   1.00800           0
     21145 MEMB     39       POPC     N        NTL     -0.600000       14.0070           0
     21146 MEMB     39       POPC     C12      CTL2    -0.100000       12.0110           0
     21147 MEMB     39       POPC     H12A     HL       0.250000       1.00800           0
     21148 MEMB     39       POPC     H12B     HL       0.250000       1.00800           0
     21149 MEMB     39       POPC     C13      CTL5    -0.350000       12.0110           0
     21150 MEMB     39       POPC     H13A     HL       0.250000       1.00800           0
     21151 MEMB     39       POPC     H13B     HL       0.250000       1.00800           0
     21152 MEMB     39       POPC     H13C     HL       0.250000       1.00800           0
     21153 MEMB     39       POPC     C14      CTL5    -0.350000       12.0110           0
     21154 MEMB     39       POPC     H14A     HL       0.250000       1.00800           0
     21155 MEMB     39       POPC     H14B     HL       0.250000       1.00800           0
     21156 MEMB     39       POPC     H14C     HL       0.250000       1.00800           0
     21157 MEMB     39       POPC     C15      CTL5    -0.350000       12.0110           0
     21158 MEMB     39       POPC     H15A     HL       0.250000       1.00800           0
     21159 MEMB     39       POPC     H15B     HL       0.250000       1.00800           0
     21160 MEMB     39       POPC     H15C     HL       0.250000       1.00800           0
     21161 MEMB     39       POPC     C11      CTL2    -0.800000E-01   12.0110           0
     21162 MEMB     39       POPC     H11A     HAL2     0.900000E-01   1.00800           0
     21163 MEMB     39       POPC     H11B     HAL2     0.900000E-01   1.00800           0
     21164 MEMB     39       POPC     P        PL       1.500000       30.9740           0
     21165 MEMB     39       POPC     O13      O2L     -0.780000       15.9994           0
     21166 MEMB     39       POPC     O14      O2L     -0.780000       15.9994           0
     21167 MEMB     39       POPC     O12      OSLP    -0.570000       15.9994           0
     21168 MEMB     39       POPC     O11      OSLP    -0.570000       15.9994           0
     21169 MEMB     39       POPC     C1       CTL2    -0.800000E-01   12.0110           0
     21170 MEMB     39       POPC     HA       HAL2     0.900000E-01   1.00800           0
     21171 MEMB     39       POPC     HB       HAL2     0.900000E-01   1.00800           0
     21172 MEMB     39       POPC     C2       CTL1     0.170000       12.0110           0
     21173 MEMB     39       POPC     HS       HAL1     0.900000E-01   1.00800           0
     21174 MEMB     39       POPC     O21      OSL     -0.490000       15.9994           0
     21175 MEMB     39       POPC     C21      CL       0.900000       12.0110           0
     21176 MEMB     39       POPC     O22      OBL     -0.630000       15.9994           0
     21177 MEMB     39       POPC     C22      CTL2    -0.220000       12.0110           0
     21178 MEMB     39       POPC     H2R      HAL2     0.900000E-01   1.00800           0
     21179 MEMB     39       POPC     H2S      HAL2     0.900000E-01   1.00800           0
     21180 MEMB     39       POPC     C3       CTL2     0.800000E-01   12.0110           0
     21181 MEMB     39       POPC     HX       HAL2     0.900000E-01   1.00800           0
     21182 MEMB     39       POPC     HY       HAL2     0.900000E-01   1.00800           0
     21183 MEMB     39       POPC     O31      OSL     -0.490000       15.9994           0
     21184 MEMB     39       POPC     C31      CL       0.900000       12.0110           0
     21185 MEMB     39       POPC     O32      OBL     -0.630000       15.9994           0
     21186 MEMB     39       POPC     C32      CTL2    -0.220000       12.0110           0
     21187 MEMB     39       POPC     H2X      HAL2     0.900000E-01   1.00800           0
     21188 MEMB     39       POPC     H2Y      HAL2     0.900000E-01   1.00800           0
     21189 MEMB     39       POPC     C23      CTL2    -0.180000       12.0110           0
     21190 MEMB     39       POPC     H3R      HAL2     0.900000E-01   1.00800           0
     21191 MEMB     39       POPC     H3S      HAL2     0.900000E-01   1.00800           0
     21192 MEMB     39       POPC     C24      CTL2    -0.180000       12.0110           0
     21193 MEMB     39       POPC     H4R      HAL2     0.900000E-01   1.00800           0
     21194 MEMB     39       POPC     H4S      HAL2     0.900000E-01   1.00800           0
     21195 MEMB     39       POPC     C25      CTL2    -0.180000       12.0110           0
     21196 MEMB     39       POPC     H5R      HAL2     0.900000E-01   1.00800           0
     21197 MEMB     39       POPC     H5S      HAL2     0.900000E-01   1.00800           0
     21198 MEMB     39       POPC     C26      CTL2    -0.180000       12.0110           0
     21199 MEMB     39       POPC     H6R      HAL2     0.900000E-01   1.00800           0
     21200 MEMB     39       POPC     H6S      HAL2     0.900000E-01   1.00800           0
     21201 MEMB     39       POPC     C27      CTL2    -0.180000       12.0110           0
     21202 MEMB     39       POPC     H7R      HAL2     0.900000E-01   1.00800           0
     21203 MEMB     39       POPC     H7S      HAL2     0.900000E-01   1.00800           0
     21204 MEMB     39       POPC     C28      CTL2    -0.180000       12.0110           0
     21205 MEMB     39       POPC     H8R      HAL2     0.900000E-01   1.00800           0
     21206 MEMB     39       POPC     H8S      HAL2     0.900000E-01   1.00800           0
     21207 MEMB     39       POPC     C29      CEL1    -0.150000       12.0110           0
     21208 MEMB     39       POPC     H91      HEL1     0.150000       1.00800           0
     21209 MEMB     39       POPC     C210     CEL1    -0.150000       12.0110           0
     21210 MEMB     39       POPC     H101     HEL1     0.150000       1.00800           0
     21211 MEMB     39       POPC     C211     CTL2    -0.180000       12.0110           0
     21212 MEMB     39       POPC     H11R     HAL2     0.900000E-01   1.00800           0
     21213 MEMB     39       POPC     H11S     HAL2     0.900000E-01   1.00800           0
     21214 MEMB     39       POPC     C212     CTL2    -0.180000       12.0110           0
     21215 MEMB     39       POPC     H12R     HAL2     0.900000E-01   1.00800           0
     21216 MEMB     39       POPC     H12S     HAL2     0.900000E-01   1.00800           0
     21217 MEMB     39       POPC     C213     CTL2    -0.180000       12.0110           0
     21218 MEMB     39       POPC     H13R     HAL2     0.900000E-01   1.00800           0
     21219 MEMB     39       POPC     H13S     HAL2     0.900000E-01   1.00800           0
     21220 MEMB     39       POPC     C214     CTL2    -0.180000       12.0110           0
     21221 MEMB     39       POPC     H14R     HAL2     0.900000E-01   1.00800           0
     21222 MEMB     39       POPC     H14S     HAL2     0.900000E-01   1.00800           0
     21223 MEMB     39       POPC     C215     CTL2    -0.180000       12.0110           0
     21224 MEMB     39       POPC     H15R     HAL2     0.900000E-01   1.00800           0
     21225 MEMB     39       POPC     H15S     HAL2     0.900000E-01   1.00800           0
     21226 MEMB     39       POPC     C216     CTL2    -0.180000       12.0110           0
     21227 MEMB     39       POPC     H16R     HAL2     0.900000E-01   1.00800           0
     21228 MEMB     39       POPC     H16S     HAL2     0.900000E-01   1.00800           0
     21229 MEMB     39       POPC     C217     CTL2    -0.180000       12.0110           0
     21230 MEMB     39       POPC     H17R     HAL2     0.900000E-01   1.00800           0
     21231 MEMB     39       POPC     H17S     HAL2     0.900000E-01   1.00800           0
     21232 MEMB     39       POPC     C218     CTL3    -0.270000       12.0110           0
     21233 MEMB     39       POPC     H18R     HAL3     0.900000E-01   1.00800           0
     21234 MEMB     39       POPC     H18S     HAL3     0.900000E-01   1.00800           0
     21235 MEMB     39       POPC     H18T     HAL3     0.900000E-01   1.00800           0
     21236 MEMB     39       POPC     C33      CTL2    -0.180000       12.0110           0
     21237 MEMB     39       POPC     H3X      HAL2     0.900000E-01   1.00800           0
     21238 MEMB     39       POPC     H3Y      HAL2     0.900000E-01   1.00800           0
     21239 MEMB     39       POPC     C34      CTL2    -0.180000       12.0110           0
     21240 MEMB     39       POPC     H4X      HAL2     0.900000E-01   1.00800           0
     21241 MEMB     39       POPC     H4Y      HAL2     0.900000E-01   1.00800           0
     21242 MEMB     39       POPC     C35      CTL2    -0.180000       12.0110           0
     21243 MEMB     39       POPC     H5X      HAL2     0.900000E-01   1.00800           0
     21244 MEMB     39       POPC     H5Y      HAL2     0.900000E-01   1.00800           0
     21245 MEMB     39       POPC     C36      CTL2    -0.180000       12.0110           0
     21246 MEMB     39       POPC     H6X      HAL2     0.900000E-01   1.00800           0
     21247 MEMB     39       POPC     H6Y      HAL2     0.900000E-01   1.00800           0
     21248 MEMB     39       POPC     C37      CTL2    -0.180000       12.0110           0
     21249 MEMB     39       POPC     H7X      HAL2     0.900000E-01   1.00800           0
     21250 MEMB     39       POPC     H7Y      HAL2     0.900000E-01   1.00800           0
     21251 MEMB     39       POPC     C38      CTL2    -0.180000       12.0110           0
     21252 MEMB     39       POPC     H8X      HAL2     0.900000E-01   1.00800           0
     21253 MEMB     39       POPC     H8Y      HAL2     0.900000E-01   1.00800           0
     21254 MEMB     39       POPC     C39      CTL2    -0.180000       12.0110           0
     21255 MEMB     39       POPC     H9X      HAL2     0.900000E-01   1.00800           0
     21256 MEMB     39       POPC     H9Y      HAL2     0.900000E-01   1.00800           0
     21257 MEMB     39       POPC     C310     CTL2    -0.180000       12.0110           0
     21258 MEMB     39       POPC     H10X     HAL2     0.900000E-01   1.00800           0
     21259 MEMB     39       POPC     H10Y     HAL2     0.900000E-01   1.00800           0
     21260 MEMB     39       POPC     C311     CTL2    -0.180000       12.0110           0
     21261 MEMB     39       POPC     H11X     HAL2     0.900000E-01   1.00800           0
     21262 MEMB     39       POPC     H11Y     HAL2     0.900000E-01   1.00800           0
     21263 MEMB     39       POPC     C312     CTL2    -0.180000       12.0110           0
     21264 MEMB     39       POPC     H12X     HAL2     0.900000E-01   1.00800           0
     21265 MEMB     39       POPC     H12Y     HAL2     0.900000E-01   1.00800           0
     21266 MEMB     39       POPC     C313     CTL2    -0.180000       12.0110           0
     21267 MEMB     39       POPC     H13X     HAL2     0.900000E-01   1.00800           0
     21268 MEMB     39       POPC     H13Y     HAL2     0.900000E-01   1.00800           0
     21269 MEMB     39       POPC     C314     CTL2    -0.180000       12.0110           0
     21270 MEMB     39       POPC     H14X     HAL2     0.900000E-01   1.00800           0
     21271 MEMB     39       POPC     H14Y     HAL2     0.900000E-01   1.00800           0
     21272 MEMB     39       POPC     C315     CTL2    -0.180000       12.0110           0
     21273 MEMB     39       POPC     H15X     HAL2     0.900000E-01   1.00800           0
     21274 MEMB     39       POPC     H15Y     HAL2     0.900000E-01   1.00800           0
     21275 MEMB     39       POPC     C316     CTL3    -0.270000       12.0110           0
     21276 MEMB     39       POPC     H16X     HAL3     0.900000E-01   1.00800           0
     21277 MEMB     39       POPC     H16Y     HAL3     0.900000E-01   1.00800           0
     21278 MEMB     39       POPC     H16Z     HAL3     0.900000E-01   1.00800           0
     21279 MEMB     68       POPC     N        NTL     -0.600000       14.0070           0
     21280 MEMB     68       POPC     C12      CTL2    -0.100000       12.0110           0
     21281 MEMB     68       POPC     H12A     HL       0.250000       1.00800           0
     21282 MEMB     68       POPC     H12B     HL       0.250000       1.00800           0
     21283 MEMB     68       POPC     C13      CTL5    -0.350000       12.0110           0
     21284 MEMB     68       POPC     H13A     HL       0.250000       1.00800           0
     21285 MEMB     68       POPC     H13B     HL       0.250000       1.00800           0
     21286 MEMB     68       POPC     H13C     HL       0.250000       1.00800           0
     21287 MEMB     68       POPC     C14      CTL5    -0.350000       12.0110           0
     21288 MEMB     68       POPC     H14A     HL       0.250000       1.00800           0
     21289 MEMB     68       POPC     H14B     HL       0.250000       1.00800           0
     21290 MEMB     68       POPC     H14C     HL       0.250000       1.00800           0
     21291 MEMB     68       POPC     C15      CTL5    -0.350000       12.0110           0
     21292 MEMB     68       POPC     H15A     HL       0.250000       1.00800           0
     21293 MEMB     68       POPC     H15B     HL       0.250000       1.00800           0
     21294 MEMB     68       POPC     H15C     HL       0.250000       1.00800           0
     21295 MEMB     68       POPC     C11      CTL2    -0.800000E-01   12.0110           0
     21296 MEMB     68       POPC     H11A     HAL2     0.900000E-01   1.00800           0
     21297 MEMB     68       POPC     H11B     HAL2     0.900000E-01   1.00800           0
     21298 MEMB     68       POPC     P        PL       1.500000       30.9740           0
     21299 MEMB     68       POPC     O13      O2L     -0.780000       15.9994           0
     21300 MEMB     68       POPC     O14      O2L     -0.780000       15.9994           0
     21301 MEMB     68       POPC     O12      OSLP    -0.570000       15.9994           0
     21302 MEMB     68       POPC     O11      OSLP    -0.570000       15.9994           0
     21303 MEMB     68       POPC     C1       CTL2    -0.800000E-01   12.0110           0
     21304 MEMB     68       POPC     HA       HAL2     0.900000E-01   1.00800           0
     21305 MEMB     68       POPC     HB       HAL2     0.900000E-01   1.00800           0
     21306 MEMB     68       POPC     C2       CTL1     0.170000       12.0110           0
     21307 MEMB     68       POPC     HS       HAL1     0.900000E-01   1.00800           0
     21308 MEMB     68       POPC     O21      OSL     -0.490000       15.9994           0
     21309 MEMB     68       POPC     C21      CL       0.900000       12.0110           0
     21310 MEMB     68       POPC     O22      OBL     -0.630000       15.9994           0
     21311 MEMB     68       POPC     C22      CTL2    -0.220000       12.0110           0
     21312 MEMB     68       POPC     H2R      HAL2     0.900000E-01   1.00800           0
     21313 MEMB     68       POPC     H2S      HAL2     0.900000E-01   1.00800           0
     21314 MEMB     68       POPC     C3       CTL2     0.800000E-01   12.0110           0
     21315 MEMB     68       POPC     HX       HAL2     0.900000E-01   1.00800           0
     21316 MEMB     68       POPC     HY       HAL2     0.900000E-01   1.00800           0
     21317 MEMB     68       POPC     O31      OSL     -0.490000       15.9994           0
     21318 MEMB     68       POPC     C31      CL       0.900000       12.0110           0
     21319 MEMB     68       POPC     O32      OBL     -0.630000       15.9994           0
     21320 MEMB     68       POPC     C32      CTL2    -0.220000       12.0110           0
     21321 MEMB     68       POPC     H2X      HAL2     0.900000E-01   1.00800           0
     21322 MEMB     68       POPC     H2Y      HAL2     0.900000E-01   1.00800           0
     21323 MEMB     68       POPC     C23      CTL2    -0.180000       12.0110           0
     21324 MEMB     68       POPC     H3R      HAL2     0.900000E-01   1.00800           0
     21325 MEMB     68       POPC     H3S      HAL2     0.900000E-01   1.00800           0
     21326 MEMB     68       POPC     C24      CTL2    -0.180000       12.0110           0
     21327 MEMB     68       POPC     H4R      HAL2     0.900000E-01   1.00800           0
     21328 MEMB     68       POPC     H4S      HAL2     0.900000E-01   1.00800           0
     21329 MEMB     68       POPC     C25      CTL2    -0.180000       12.0110           0
     21330 MEMB     68       POPC     H5R      HAL2     0.900000E-01   1.00800           0
     21331 MEMB     68       POPC     H5S      HAL2     0.900000E-01   1.00800           0
     21332 MEMB     68       POPC     C26      CTL2    -0.180000       12.0110           0
     21333 MEMB     68       POPC     H6R      HAL2     0.900000E-01   1.00800           0
     21334 MEMB     68       POPC     H6S      HAL2     0.900000E-01   1.00800           0
     21335 MEMB     68       POPC     C27      CTL2    -0.180000       12.0110           0
     21336 MEMB     68       POPC     H7R      HAL2     0.900000E-01   1.00800           0
     21337 MEMB     68       POPC     H7S      HAL2     0.900000E-01   1.00800           0
     21338 MEMB     68       POPC     C28      CTL2    -0.180000       12.0110           0
     21339 MEMB     68       POPC     H8R      HAL2     0.900000E-01   1.00800           0
     21340 MEMB     68       POPC     H8S      HAL2     0.900000E-01   1.00800           0
     21341 MEMB     68       POPC     C29      CEL1    -0.150000       12.0110           0
     21342 MEMB     68       POPC     H91      HEL1     0.150000       1.00800           0
     21343 MEMB     68       POPC     C210     CEL1    -0.150000       12.0110           0
     21344 MEMB     68       POPC     H101     HEL1     0.150000       1.00800           0
     21345 MEMB     68       POPC     C211     CTL2    -0.180000       12.0110           0
     21346 MEMB     68       POPC     H11R     HAL2     0.900000E-01   1.00800           0
     21347 MEMB     68       POPC     H11S     HAL2     0.900000E-01   1.00800           0
     21348 MEMB     68       POPC     C212     CTL2    -0.180000       12.0110           0
     21349 MEMB     68       POPC     H12R     HAL2     0.900000E-01   1.00800           0
     21350 MEMB     68       POPC     H12S     HAL2     0.900000E-01   1.00800           0
     21351 MEMB     68       POPC     C213     CTL2    -0.180000       12.0110           0
     21352 MEMB     68       POPC     H13R     HAL2     0.900000E-01   1.00800           0
     21353 MEMB     68       POPC     H13S     HAL2     0.900000E-01   1.00800           0
     21354 MEMB     68       POPC     C214     CTL2    -0.180000       12.0110           0
     21355 MEMB     68       POPC     H14R     HAL2     0.900000E-01   1.00800           0
     21356 MEMB     68       POPC     H14S     HAL2     0.900000E-01   1.00800           0
     21357 MEMB     68       POPC     C215     CTL2    -0.180000       12.0110           0
     21358 MEMB     68       POPC     H15R     HAL2     0.900000E-01   1.00800           0
     21359 MEMB     68       POPC     H15S     HAL2     0.900000E-01   1.00800           0
     21360 MEMB     68       POPC     C216     CTL2    -0.180000       12.0110           0
     21361 MEMB     68       POPC     H16R     HAL2     0.900000E-01   1.00800           0
     21362 MEMB     68       POPC     H16S     HAL2     0.900000E-01   1.00800           0
     21363 MEMB     68       POPC     C217     CTL2    -0.180000       12.0110           0
     21364 MEMB     68       POPC     H17R     HAL2     0.900000E-01   1.00800           0
     21365 MEMB     68       POPC     H17S     HAL2     0.900000E-01   1.00800           0
     21366 MEMB     68       POPC     C218     CTL3    -0.270000       12.0110           0
     21367 MEMB     68       POPC     H18R     HAL3     0.900000E-01   1.00800           0
     21368 MEMB     68       POPC     H18S     HAL3     0.900000E-01   1.00800           0
     21369 MEMB     68       POPC     H18T     HAL3     0.900000E-01   1.00800           0
     21370 MEMB     68       POPC     C33      CTL2    -0.180000       12.0110           0
     21371 MEMB     68       POPC     H3X      HAL2     0.900000E-01   1.00800           0
     21372 MEMB     68       POPC     H3Y      HAL2     0.900000E-01   1.00800           0
     21373 MEMB     68       POPC     C34      CTL2    -0.180000       12.0110           0
     21374 MEMB     68       POPC     H4X      HAL2     0.900000E-01   1.00800           0
     21375 MEMB     68       POPC     H4Y      HAL2     0.900000E-01   1.00800           0
     21376 MEMB     68       POPC     C35      CTL2    -0.180000       12.0110           0
     21377 MEMB     68       POPC     H5X      HAL2     0.900000E-01   1.00800           0
     21378 MEMB     68       POPC     H5Y      HAL2     0.900000E-01   1.00800           0
     21379 MEMB     68       POPC     C36      CTL2    -0.180000       12.0110           0
     21380 MEMB     68       POPC     H6X      HAL2     0.900000E-01   1.00800           0
     21381 MEMB     68       POPC     H6Y      HAL2     0.900000E-01   1.00800           0
     21382 MEMB     68       POPC     C37      CTL2    -0.180000       12.0110           0
     21383 MEMB     68       POPC     H7X      HAL2     0.900000E-01   1.00800           0
     21384 MEMB     68       POPC     H7Y      HAL2     0.900000E-01   1.00800           0
     21385 MEMB     68       POPC     C38      CTL2    -0.180000       12.0110           0
     21386 MEMB     68       POPC     H8X      HAL2     0.900000E-01   1.00800           0
     21387 MEMB     68       POPC     H8Y      HAL2     0.900000E-01   1.00800           0
     21388 MEMB     68       POPC     C39      CTL2    -0.180000       12.0110           0
     21389 MEMB     68       POPC     H9X      HAL2     0.900000E-01   1.00800           0
     21390 MEMB     68       POPC     H9Y      HAL2     0.900000E-01   1.00800           0
     21391 MEMB     68       POPC     C310     CTL2    -0.180000       12.0110           0
     21392 MEMB     68       POPC     H10X     HAL2     0.900000E-01   1.00800           0
     21393 MEMB     68       POPC     H10Y     HAL2     0.900000E-01   1.00800           0
     21394 MEMB     68       POPC     C311     CTL2    -0.180000       12.0110           0
     21395 MEMB     68       POPC     H11X     HAL2     0.900000E-01   1.00800           0
     21396 MEMB     68       POPC     H11Y     HAL2     0.900000E-01   1.00800           0
     21397 MEMB     68       POPC     C312     CTL2    -0.180000       12.0110           0
     21398 MEMB     68       POPC     H12X     HAL2     0.900000E-01   1.00800           0
     21399 MEMB     68       POPC     H12Y     HAL2     0.900000E-01   1.00800           0
     21400 MEMB     68       POPC     C313     CTL2    -0.180000       12.0110           0
     21401 MEMB     68       POPC     H13X     HAL2     0.900000E-01   1.00800           0
     21402 MEMB     68       POPC     H13Y     HAL2     0.900000E-01   1.00800           0
     21403 MEMB     68       POPC     C314     CTL2    -0.180000       12.0110           0
     21404 MEMB     68       POPC     H14X     HAL2     0.900000E-01   1.00800           0
     21405 MEMB     68       POPC     H14Y     HAL2     0.900000E-01   1.00800           0
     21406 MEMB     68       POPC     C315     CTL2    -0.180000       12.0110           0
     21407 MEMB     68       POPC     H15X     HAL2     0.900000E-01   1.00800           0
     21408 MEMB     68       POPC     H15Y     HAL2     0.900000E-01   1.00800           0
     21409 MEMB     68       POPC     C316     CTL3    -0.270000       12.0110           0
     21410 MEMB     68       POPC     H16X     HAL3     0.900000E-01   1.00800           0
     21411 MEMB     68       POPC     H16Y     HAL3     0.900000E-01   1.00800           0
     21412 MEMB     68       POPC     H16Z     HAL3     0.900000E-01   1.00800           0
     21413 MEMB     151      POPC     N        NTL     -0.600000       14.0070           0
     21414 MEMB     151      POPC     C12      CTL2    -0.100000       12.0110           0
     21415 MEMB     151      POPC     H12A     HL       0.250000       1.00800           0
     21416 MEMB     151      POPC     H12B     HL       0.250000       1.00800           0
     21417 MEMB     151      POPC     C13      CTL5    -0.350000       12.0110           0
     21418 MEMB     151      POPC     H13A     HL       0.250000       1.00800           0
     21419 MEMB     151      POPC     H13B     HL       0.250000       1.00800           0
     21420 MEMB     151      POPC     H13C     HL       0.250000       1.00800           0
     21421 MEMB     151      POPC     C14      CTL5    -0.350000       12.0110           0
     21422 MEMB     151      POPC     H14A     HL       0.250000       1.00800           0
     21423 MEMB     151      POPC     H14B     HL       0.250000       1.00800           0
     21424 MEMB     151      POPC     H14C     HL       0.250000       1.00800           0
     21425 MEMB     151      POPC     C15      CTL5    -0.350000       12.0110           0
     21426 MEMB     151      POPC     H15A     HL       0.250000       1.00800           0
     21427 MEMB     151      POPC     H15B     HL       0.250000       1.00800           0
     21428 MEMB     151      POPC     H15C     HL       0.250000       1.00800           0
     21429 MEMB     151      POPC     C11      CTL2    -0.800000E-01   12.0110           0
     21430 MEMB     151      POPC     H11A     HAL2     0.900000E-01   1.00800           0
     21431 MEMB     151      POPC     H11B     HAL2     0.900000E-01   1.00800           0
     21432 MEMB     151      POPC     P        PL       1.500000       30.9740           0
     21433 MEMB     151      POPC     O13      O2L     -0.780000       15.9994           0
     21434 MEMB     151      POPC     O14      O2L     -0.780000       15.9994           0
     21435 MEMB     151      POPC     O12      OSLP    -0.570000       15.9994           0
     21436 MEMB     151      POPC     O11      OSLP    -0.570000       15.9994           0
     21437 MEMB     151      POPC     C1       CTL2    -0.800000E-01   12.0110           0
     21438 MEMB     151      POPC     HA       HAL2     0.900000E-01   1.00800           0
     21439 MEMB     151      POPC     HB       HAL2     0.900000E-01   1.00800           0
     21440 MEMB     151      POPC     C2       CTL1     0.170000       12.0110           0
     21441 MEMB     151      POPC     HS       HAL1     0.900000E-01   1.00800           0
     21442 MEMB     151      POPC     O21      OSL     -0.490000       15.9994           0
     21443 MEMB     151      POPC     C21      CL       0.900000       12.0110           0
     21444 MEMB     151      POPC     O22      OBL     -0.630000       15.9994           0
     21445 MEMB     151      POPC     C22      CTL2    -0.220000       12.0110           0
     21446 MEMB     151      POPC     H2R      HAL2     0.900000E-01   1.00800           0
     21447 MEMB     151      POPC     H2S      HAL2     0.900000E-01   1.00800           0
     21448 MEMB     151      POPC     C3       CTL2     0.800000E-01   12.0110           0
     21449 MEMB     151      POPC     HX       HAL2     0.900000E-01   1.00800           0
     21450 MEMB     151      POPC     HY       HAL2     0.900000E-01   1.00800           0
     21451 MEMB     151      POPC     O31      OSL     -0.490000       15.9994           0
     21452 MEMB     151      POPC     C31      CL       0.900000       12.0110           0
     21453 MEMB     151      POPC     O32      OBL     -0.630000       15.9994           0
     21454 MEMB     151      POPC     C32      CTL2    -0.220000       12.0110           0
     21455 MEMB     151      POPC     H2X      HAL2     0.900000E-01   1.00800           0
     21456 MEMB     151      POPC     H2Y      HAL2     0.900000E-01   1.00800           0
     21457 MEMB     151      POPC     C23      CTL2    -0.180000       12.0110           0
     21458 MEMB     151      POPC     H3R      HAL2     0.900000E-01   1.00800           0
     21459 MEMB     151      POPC     H3S      HAL2     0.900000E-01   1.00800           0
     21460 MEMB     151      POPC     C24      CTL2    -0.180000       12.0110           0
     21461 MEMB     151      POPC     H4R      HAL2     0.900000E-01   1.00800           0
     21462 MEMB     151      POPC     H4S      HAL2     0.900000E-01   1.00800           0
     21463 MEMB     151      POPC     C25      CTL2    -0.180000       12.0110           0
     21464 MEMB     151      POPC     H5R      HAL2     0.900000E-01   1.00800           0
     21465 MEMB     151      POPC     H5S      HAL2     0.900000E-01   1.00800           0
     21466 MEMB     151      POPC     C26      CTL2    -0.180000       12.0110           0
     21467 MEMB     151      POPC     H6R      HAL2     0.900000E-01   1.00800           0
     21468 MEMB     151      POPC     H6S      HAL2     0.900000E-01   1.00800           0
     21469 MEMB     151      POPC     C27      CTL2    -0.180000       12.0110           0
     21470 MEMB     151      POPC     H7R      HAL2     0.900000E-01   1.00800           0
     21471 MEMB     151      POPC     H7S      HAL2     0.900000E-01   1.00800           0
     21472 MEMB     151      POPC     C28      CTL2    -0.180000       12.0110           0
     21473 MEMB     151      POPC     H8R      HAL2     0.900000E-01   1.00800           0
     21474 MEMB     151      POPC     H8S      HAL2     0.900000E-01   1.00800           0
     21475 MEMB     151      POPC     C29      CEL1    -0.150000       12.0110           0
     21476 MEMB     151      POPC     H91      HEL1     0.150000       1.00800           0
     21477 MEMB     151      POPC     C210     CEL1    -0.150000       12.0110           0
     21478 MEMB     151      POPC     H101     HEL1     0.150000       1.00800           0
     21479 MEMB     151      POPC     C211     CTL2    -0.180000       12.0110           0
     21480 MEMB     151      POPC     H11R     HAL2     0.900000E-01   1.00800           0
     21481 MEMB     151      POPC     H11S     HAL2     0.900000E-01   1.00800           0
     21482 MEMB     151      POPC     C212     CTL2    -0.180000       12.0110           0
     21483 MEMB     151      POPC     H12R     HAL2     0.900000E-01   1.00800           0
     21484 MEMB     151      POPC     H12S     HAL2     0.900000E-01   1.00800           0
     21485 MEMB     151      POPC     C213     CTL2    -0.180000       12.0110           0
     21486 MEMB     151      POPC     H13R     HAL2     0.900000E-01   1.00800           0
     21487 MEMB     151      POPC     H13S     HAL2     0.900000E-01   1.00800           0
     21488 MEMB     151      POPC     C214     CTL2    -0.180000       12.0110           0
     21489 MEMB     151      POPC     H14R     HAL2     0.900000E-01   1.00800           0
     21490 MEMB     151      POPC     H14S     HAL2     0.900000E-01   1.00800           0
     21491 MEMB     151      POPC     C215     CTL2    -0.180000       12.0110           0
     21492 MEMB     151      POPC     H15R     HAL2     0.900000E-01   1.00800           0
     21493 MEMB     151      POPC     H15S     HAL2     0.900000E-01   1.00800           0
     21494 MEMB     151      POPC     C216     CTL2    -0.180000       12.0110           0
     21495 MEMB     151      POPC     H16R     HAL2     0.900000E-01   1.00800           0
     21496 MEMB     151      POPC     H16S     HAL2     0.900000E-01   1.00800           0
     21497 MEMB     151      POPC     C217     CTL2    -0.180000       12.0110           0
     21498 MEMB     151      POPC     H17R     HAL2     0.900000E-01   1.00800           0
     21499 MEMB     151      POPC     H17S     HAL2     0.900000E-01   1.00800           0
     21500 MEMB     151      POPC     C218     CTL3    -0.270000       12.0110           0
     21501 MEMB     151      POPC     H18R     HAL3     0.900000E-01   1.00800           0
     21502 MEMB     151      POPC     H18S     HAL3     0.900000E-01   1.00800           0
     21503 MEMB     151      POPC     H18T     HAL3     0.900000E-01   1.00800           0
     21504 MEMB     151      POPC     C33      CTL2    -0.180000       12.0110           0
     21505 MEMB     151      POPC     H3X      HAL2     0.900000E-01   1.00800           0
     21506 MEMB     151      POPC     H3Y      HAL2     0.900000E-01   1.00800           0
     21507 MEMB     151      POPC     C34      CTL2    -0.180000       12.0110           0
     21508 MEMB     151      POPC     H4X      HAL2     0.900000E-01   1.00800           0
     21509 MEMB     151      POPC     H4Y      HAL2     0.900000E-01   1.00800           0
     21510 MEMB     151      POPC     C35      CTL2    -0.180000       12.0110           0
     21511 MEMB     151      POPC     H5X      HAL2     0.900000E-01   1.00800           0
     21512 MEMB     151      POPC     H5Y      HAL2     0.900000E-01   1.00800           0
     21513 MEMB     151      POPC     C36      CTL2    -0.180000       12.0110           0
     21514 MEMB     151      POPC     H6X      HAL2     0.900000E-01   1.00800           0
     21515 MEMB     151      POPC     H6Y      HAL2     0.900000E-01   1.00800           0
     21516 MEMB     151      POPC     C37      CTL2    -0.180000       12.0110           0
     21517 MEMB     151      POPC     H7X      HAL2     0.900000E-01   1.00800           0
     21518 MEMB     151      POPC     H7Y      HAL2     0.900000E-01   1.00800           0
     21519 MEMB     151      POPC     C38      CTL2    -0.180000       12.0110           0
     21520 MEMB     151      POPC     H8X      HAL2     0.900000E-01   1.00800           0
     21521 MEMB     151      POPC     H8Y      HAL2     0.900000E-01   1.00800           0
     21522 MEMB     151      POPC     C39      CTL2    -0.180000       12.0110           0
     21523 MEMB     151      POPC     H9X      HAL2     0.900000E-01   1.00800           0
     21524 MEMB     151      POPC     H9Y      HAL2     0.900000E-01   1.00800           0
     21525 MEMB     151      POPC     C310     CTL2    -0.180000       12.0110           0
     21526 MEMB     151      POPC     H10X     HAL2     0.900000E-01   1.00800           0
     21527 MEMB     151      POPC     H10Y     HAL2     0.900000E-01   1.00800           0
     21528 MEMB     151      POPC     C311     CTL2    -0.180000       12.0110           0
     21529 MEMB     151      POPC     H11X     HAL2     0.900000E-01   1.00800           0
     21530 MEMB     151      POPC     H11Y     HAL2     0.900000E-01   1.00800           0
     21531 MEMB     151      POPC     C312     CTL2    -0.180000       12.0110           0
     21532 MEMB     151      POPC     H12X     HAL2     0.900000E-01   1.00800           0
     21533 MEMB     151      POPC     H12Y     HAL2     0.900000E-01   1.00800           0
     21534 MEMB     151      POPC     C313     CTL2    -0.180000       12.0110           0
     21535 MEMB     151      POPC     H13X     HAL2     0.900000E-01   1.00800           0
     21536 MEMB     151      POPC     H13Y     HAL2     0.900000E-01   1.00800           0
     21537 MEMB     151      POPC     C314     CTL2    -0.180000       12.0110           0
     21538 MEMB     151      POPC     H14X     HAL2     0.900000E-01   1.00800           0
     21539 MEMB     151      POPC     H14Y     HAL2     0.900000E-01   1.00800           0
     21540 MEMB     151      POPC     C315     CTL2    -0.180000       12.0110           0
     21541 MEMB     151      POPC     H15X     HAL2     0.900000E-01   1.00800           0
     21542 MEMB     151      POPC     H15Y     HAL2     0.900000E-01   1.00800           0
     21543 MEMB     151      POPC     C316     CTL3    -0.270000       12.0110           0
     21544 MEMB     151      POPC     H16X     HAL3     0.900000E-01   1.00800           0
     21545 MEMB     151      POPC     H16Y     HAL3     0.900000E-01   1.00800           0
     21546 MEMB     151      POPC     H16Z     HAL3     0.900000E-01   1.00800           0
     21547 MEMB     163      POPC     N        NTL     -0.600000       14.0070           0
     21548 MEMB     163      POPC     C12      CTL2    -0.100000       12.0110           0
     21549 MEMB     163      POPC     H12A     HL       0.250000       1.00800           0
     21550 MEMB     163      POPC     H12B     HL       0.250000       1.00800           0
     21551 MEMB     163      POPC     C13      CTL5    -0.350000       12.0110           0
     21552 MEMB     163      POPC     H13A     HL       0.250000       1.00800           0
     21553 MEMB     163      POPC     H13B     HL       0.250000       1.00800           0
     21554 MEMB     163      POPC     H13C     HL       0.250000       1.00800           0
     21555 MEMB     163      POPC     C14      CTL5    -0.350000       12.0110           0
     21556 MEMB     163      POPC     H14A     HL       0.250000       1.00800           0
     21557 MEMB     163      POPC     H14B     HL       0.250000       1.00800           0
     21558 MEMB     163      POPC     H14C     HL       0.250000       1.00800           0
     21559 MEMB     163      POPC     C15      CTL5    -0.350000       12.0110           0
     21560 MEMB     163      POPC     H15A     HL       0.250000       1.00800           0
     21561 MEMB     163      POPC     H15B     HL       0.250000       1.00800           0
     21562 MEMB     163      POPC     H15C     HL       0.250000       1.00800           0
     21563 MEMB     163      POPC     C11      CTL2    -0.800000E-01   12.0110           0
     21564 MEMB     163      POPC     H11A     HAL2     0.900000E-01   1.00800           0
     21565 MEMB     163      POPC     H11B     HAL2     0.900000E-01   1.00800           0
     21566 MEMB     163      POPC     P        PL       1.500000       30.9740           0
     21567 MEMB     163      POPC     O13      O2L     -0.780000       15.9994           0
     21568 MEMB     163      POPC     O14      O2L     -0.780000       15.9994           0
     21569 MEMB     163      POPC     O12      OSLP    -0.570000       15.9994           0
     21570 MEMB     163      POPC     O11      OSLP    -0.570000       15.9994           0
     21571 MEMB     163      POPC     C1       CTL2    -0.800000E-01   12.0110           0
     21572 MEMB     163      POPC     HA       HAL2     0.900000E-01   1.00800           0
     21573 MEMB     163      POPC     HB       HAL2     0.900000E-01   1.00800           0
     21574 MEMB     163      POPC     C2       CTL1     0.170000       12.0110           0
     21575 MEMB     163      POPC     HS       HAL1     0.900000E-01   1.00800           0
     21576 MEMB     163      POPC     O21      OSL     -0.490000       15.9994           0
     21577 MEMB     163      POPC     C21      CL       0.900000       12.0110           0
     21578 MEMB     163      POPC     O22      OBL     -0.630000       15.9994           0
     21579 MEMB     163      POPC     C22      CTL2    -0.220000       12.0110           0
     21580 MEMB     163      POPC     H2R      HAL2     0.900000E-01   1.00800           0
     21581 MEMB     163      POPC     H2S      HAL2     0.900000E-01   1.00800           0
     21582 MEMB     163      POPC     C3       CTL2     0.800000E-01   12.0110           0
     21583 MEMB     163      POPC     HX       HAL2     0.900000E-01   1.00800           0
     21584 MEMB     163      POPC     HY       HAL2     0.900000E-01   1.00800           0
     21585 MEMB     163      POPC     O31      OSL     -0.490000       15.9994           0
     21586 MEMB     163      POPC     C31      CL       0.900000       12.0110           0
     21587 MEMB     163      POPC     O32      OBL     -0.630000       15.9994           0
     21588 MEMB     163      POPC     C32      CTL2    -0.220000       12.0110           0
     21589 MEMB     163      POPC     H2X      HAL2     0.900000E-01   1.00800           0
     21590 MEMB     163      POPC     H2Y      HAL2     0.900000E-01   1.00800           0
     21591 MEMB     163      POPC     C23      CTL2    -0.180000       12.0110           0
     21592 MEMB     163      POPC     H3R      HAL2     0.900000E-01   1.00800           0
     21593 MEMB     163      POPC     H3S      HAL2     0.900000E-01   1.00800           0
     21594 MEMB     163      POPC     C24      CTL2    -0.180000       12.0110           0
     21595 MEMB     163      POPC     H4R      HAL2     0.900000E-01   1.00800           0
     21596 MEMB     163      POPC     H4S      HAL2     0.900000E-01   1.00800           0
     21597 MEMB     163      POPC     C25      CTL2    -0.180000       12.0110           0
     21598 MEMB     163      POPC     H5R      HAL2     0.900000E-01   1.00800           0
     21599 MEMB     163      POPC     H5S      HAL2     0.900000E-01   1.00800           0
     21600 MEMB     163      POPC     C26      CTL2    -0.180000       12.0110           0
     21601 MEMB     163      POPC     H6R      HAL2     0.900000E-01   1.00800           0
     21602 MEMB     163      POPC     H6S      HAL2     0.900000E-01   1.00800           0
     21603 MEMB     163      POPC     C27      CTL2    -0.180000       12.0110           0
     21604 MEMB     163      POPC     H7R      HAL2     0.900000E-01   1.00800           0
     21605 MEMB     163      POPC     H7S      HAL2     0.900000E-01   1.00800           0
     21606 MEMB     163      POPC     C28      CTL2    -0.180000       12.0110           0
     21607 MEMB     163      POPC     H8R      HAL2     0.900000E-01   1.00800           0
     21608 MEMB     163      POPC     H8S      HAL2     0.900000E-01   1.00800           0
     21609 MEMB     163      POPC     C29      CEL1    -0.150000       12.0110           0
     21610 MEMB     163      POPC     H91      HEL1     0.150000       1.00800           0
     21611 MEMB     163      POPC     C210     CEL1    -0.150000       12.0110           0
     21612 MEMB     163      POPC     H101     HEL1     0.150000       1.00800           0
     21613 MEMB     163      POPC     C211     CTL2    -0.180000       12.0110           0
     21614 MEMB     163      POPC     H11R     HAL2     0.900000E-01   1.00800           0
     21615 MEMB     163      POPC     H11S     HAL2     0.900000E-01   1.00800           0
     21616 MEMB     163      POPC     C212     CTL2    -0.180000       12.0110           0
     21617 MEMB     163      POPC     H12R     HAL2     0.900000E-01   1.00800           0
     21618 MEMB     163      POPC     H12S     HAL2     0.900000E-01   1.00800           0
     21619 MEMB     163      POPC     C213     CTL2    -0.180000       12.0110           0
     21620 MEMB     163      POPC     H13R     HAL2     0.900000E-01   1.00800           0
     21621 MEMB     163      POPC     H13S     HAL2     0.900000E-01   1.00800           0
     21622 MEMB     163      POPC     C214     CTL2    -0.180000       12.0110           0
     21623 MEMB     163      POPC     H14R     HAL2     0.900000E-01   1.00800           0
     21624 MEMB     163      POPC     H14S     HAL2     0.900000E-01   1.00800           0
     21625 MEMB     163      POPC     C215     CTL2    -0.180000       12.0110           0
     21626 MEMB     163      POPC     H15R     HAL2     0.900000E-01   1.00800           0
     21627 MEMB     163      POPC     H15S     HAL2     0.900000E-01   1.00800           0
     21628 MEMB     163      POPC     C216     CTL2    -0.180000       12.0110           0
     21629 MEMB     163      POPC     H16R     HAL2     0.900000E-01   1.00800           0
     21630 MEMB     163      POPC     H16S     HAL2     0.900000E-01   1.00800           0
     21631 MEMB     163      POPC     C217     CTL2    -0.180000       12.0110           0
     21632 MEMB     163      POPC     H17R     HAL2     0.900000E-01   1.00800           0
     21633 MEMB     163      POPC     H17S     HAL2     0.900000E-01   1.00800           0
     21634 MEMB     163      POPC     C218     CTL3    -0.270000       12.0110           0
     21635 MEMB     163      POPC     H18R     HAL3     0.900000E-01   1.00800           0
     21636 MEMB     163      POPC     H18S     HAL3     0.900000E-01   1.00800           0
     21637 MEMB     163      POPC     H18T     HAL3     0.900000E-01   1.00800           0
     21638 MEMB     163      POPC     C33      CTL2    -0.180000       12.0110           0
     21639 MEMB     163      POPC     H3X      HAL2     0.900000E-01   1.00800           0
     21640 MEMB     163      POPC     H3Y      HAL2     0.900000E-01   1.00800           0
     21641 MEMB     163      POPC     C34      CTL2    -0.180000       12.0110           0
     21642 MEMB     163      POPC     H4X      HAL2     0.900000E-01   1.00800           0
     21643 MEMB     163      POPC     H4Y      HAL2     0.900000E-01   1.00800           0
     21644 MEMB     163      POPC     C35      CTL2    -0.180000       12.0110           0
     21645 MEMB     163      POPC     H5X      HAL2     0.900000E-01   1.00800           0
     21646 MEMB     163      POPC     H5Y      HAL2     0.900000E-01   1.00800           0
     21647 MEMB     163      POPC     C36      CTL2    -0.180000       12.0110           0
     21648 MEMB     163      POPC     H6X      HAL2     0.900000E-01   1.00800           0
     21649 MEMB     163      POPC     H6Y      HAL2     0.900000E-01   1.00800           0
     21650 MEMB     163      POPC     C37      CTL2    -0.180000       12.0110           0
     21651 MEMB     163      POPC     H7X      HAL2     0.900000E-01   1.00800           0
     21652 MEMB     163      POPC     H7Y      HAL2     0.900000E-01   1.00800           0
     21653 MEMB     163      POPC     C38      CTL2    -0.180000       12.0110           0
     21654 MEMB     163      POPC     H8X      HAL2     0.900000E-01   1.00800           0
     21655 MEMB     163      POPC     H8Y      HAL2     0.900000E-01   1.00800           0
     21656 MEMB     163      POPC     C39      CTL2    -0.180000       12.0110           0
     21657 MEMB     163      POPC     H9X      HAL2     0.900000E-01   1.00800           0
     21658 MEMB     163      POPC     H9Y      HAL2     0.900000E-01   1.00800           0
     21659 MEMB     163      POPC     C310     CTL2    -0.180000       12.0110           0
     21660 MEMB     163      POPC     H10X     HAL2     0.900000E-01   1.00800           0
     21661 MEMB     163      POPC     H10Y     HAL2     0.900000E-01   1.00800           0
     21662 MEMB     163      POPC     C311     CTL2    -0.180000       12.0110           0
     21663 MEMB     163      POPC     H11X     HAL2     0.900000E-01   1.00800           0
     21664 MEMB     163      POPC     H11Y     HAL2     0.900000E-01   1.00800           0
     21665 MEMB     163      POPC     C312     CTL2    -0.180000       12.0110           0
     21666 MEMB     163      POPC     H12X     HAL2     0.900000E-01   1.00800           0
     21667 MEMB     163      POPC     H12Y     HAL2     0.900000E-01   1.00800           0
     21668 MEMB     163      POPC     C313     CTL2    -0.180000       12.0110           0
     21669 MEMB     163      POPC     H13X     HAL2     0.900000E-01   1.00800           0
     21670 MEMB     163      POPC     H13Y     HAL2     0.900000E-01   1.00800           0
     21671 MEMB     163      POPC     C314     CTL2    -0.180000       12.0110           0
     21672 MEMB     163      POPC     H14X     HAL2     0.900000E-01   1.00800           0
     21673 MEMB     163      POPC     H14Y     HAL2     0.900000E-01   1.00800           0
     21674 MEMB     163      POPC     C315     CTL2    -0.180000       12.0110           0
     21675 MEMB     163      POPC     H15X     HAL2     0.900000E-01   1.00800           0
     21676 MEMB     163      POPC     H15Y     HAL2     0.900000E-01   1.00800           0
     21677 MEMB     163      POPC     C316     CTL3    -0.270000       12.0110           0
     21678 MEMB     163      POPC     H16X     HAL3     0.900000E-01   1.00800           0
     21679 MEMB     163      POPC     H16Y     HAL3     0.900000E-01   1.00800           0
     21680 MEMB     163      POPC     H16Z     HAL3     0.900000E-01   1.00800           0
     21681 MEMB     63       SAPI     C12      CC3161   0.140000       12.0110           0
     21682 MEMB     63       SAPI     H2       HCA1     0.900000E-01   1.00800           0
     21683 MEMB     63       SAPI     O2       OC311   -0.650000       15.9994           0
     21684 MEMB     63       SAPI     HO2      HCP1     0.420000       1.00800           0
     21685 MEMB     63       SAPI     C13      CC3161   0.140000       12.0110           0
     21686 MEMB     63       SAPI     H3       HCA1     0.900000E-01   1.00800           0
     21687 MEMB     63       SAPI     O3       OC311   -0.650000       15.9994           0
     21688 MEMB     63       SAPI     HO3      HCP1     0.420000       1.00800           0
     21689 MEMB     63       SAPI     C14      CC3161   0.140000       12.0110           0
     21690 MEMB     63       SAPI     H4       HCA1     0.900000E-01   1.00800           0
     21691 MEMB     63       SAPI     O4       OC311   -0.650000       15.9994           0
     21692 MEMB     63       SAPI     HO4      HCP1     0.420000       1.00800           0
     21693 MEMB     63       SAPI     C15      CC3161   0.140000       12.0110           0
     21694 MEMB     63       SAPI     H5       HCA1     0.900000E-01   1.00800           0
     21695 MEMB     63       SAPI     O5       OC311   -0.650000       15.9994           0
     21696 MEMB     63       SAPI     HO5      HCP1     0.420000       1.00800           0
     21697 MEMB     63       SAPI     C16      CC3161   0.140000       12.0110           0
     21698 MEMB     63       SAPI     H6       HCA1     0.900000E-01   1.00800           0
     21699 MEMB     63       SAPI     O6       OC311   -0.650000       15.9994           0
     21700 MEMB     63       SAPI     HO6      HCP1     0.420000       1.00800           0
     21701 MEMB     63       SAPI     C11      CC3161  -0.800000E-01   12.0110           0
     21702 MEMB     63       SAPI     H1       HCA1     0.900000E-01   1.00800           0
     21703 MEMB     63       SAPI     P        PL       1.590000       30.9740           0
     21704 MEMB     63       SAPI     O13      O2L     -0.780000       15.9994           0
     21705 MEMB     63       SAPI     O14      O2L     -0.780000       15.9994           0
     21706 MEMB     63       SAPI     O12      OC30P   -0.570000       15.9994           0
     21707 MEMB     63       SAPI     O11      OSLP    -0.570000       15.9994           0
     21708 MEMB     63       SAPI     C1       CTL2    -0.800000E-01   12.0110           0
     21709 MEMB     63       SAPI     HA       HAL2     0.900000E-01   1.00800           0
     21710 MEMB     63       SAPI     HB       HAL2     0.900000E-01   1.00800           0
     21711 MEMB     63       SAPI     C2       CTL1     0.170000       12.0110           0
     21712 MEMB     63       SAPI     HS       HAL1     0.900000E-01   1.00800           0
     21713 MEMB     63       SAPI     O21      OSL     -0.490000       15.9994           0
     21714 MEMB     63       SAPI     C21      CL       0.900000       12.0110           0
     21715 MEMB     63       SAPI     O22      OBL     -0.630000       15.9994           0
     21716 MEMB     63       SAPI     C22      CTL2    -0.220000       12.0110           0
     21717 MEMB     63       SAPI     H2R      HAL2     0.900000E-01   1.00800           0
     21718 MEMB     63       SAPI     H2S      HAL2     0.900000E-01   1.00800           0
     21719 MEMB     63       SAPI     C3       CTL2     0.800000E-01   12.0110           0
     21720 MEMB     63       SAPI     HX       HAL2     0.900000E-01   1.00800           0
     21721 MEMB     63       SAPI     HY       HAL2     0.900000E-01   1.00800           0
     21722 MEMB     63       SAPI     O31      OSL     -0.490000       15.9994           0
     21723 MEMB     63       SAPI     C31      CL       0.900000       12.0110           0
     21724 MEMB     63       SAPI     O32      OBL     -0.630000       15.9994           0
     21725 MEMB     63       SAPI     C32      CTL2    -0.220000       12.0110           0
     21726 MEMB     63       SAPI     H2X      HAL2     0.900000E-01   1.00800           0
     21727 MEMB     63       SAPI     H2Y      HAL2     0.900000E-01   1.00800           0
     21728 MEMB     63       SAPI     C23      CTL2    -0.180000       12.0110           0
     21729 MEMB     63       SAPI     H3R      HAL2     0.900000E-01   1.00800           0
     21730 MEMB     63       SAPI     H3S      HAL2     0.900000E-01   1.00800           0
     21731 MEMB     63       SAPI     C24      CTL2    -0.180000       12.0110           0
     21732 MEMB     63       SAPI     H4R      HAL2     0.900000E-01   1.00800           0
     21733 MEMB     63       SAPI     H4S      HAL2     0.900000E-01   1.00800           0
     21734 MEMB     63       SAPI     C25      CEL1    -0.150000       12.0110           0
     21735 MEMB     63       SAPI     H5R      HEL1     0.150000       1.00800           0
     21736 MEMB     63       SAPI     C26      CEL1    -0.150000       12.0110           0
     21737 MEMB     63       SAPI     H6R      HEL1     0.150000       1.00800           0
     21738 MEMB     63       SAPI     C27      CTL2    -0.180000       12.0110           0
     21739 MEMB     63       SAPI     H7R      HAL2     0.900000E-01   1.00800           0
     21740 MEMB     63       SAPI     H7S      HAL2     0.900000E-01   1.00800           0
     21741 MEMB     63       SAPI     C28      CEL1    -0.150000       12.0110           0
     21742 MEMB     63       SAPI     H8R      HEL1     0.150000       1.00800           0
     21743 MEMB     63       SAPI     C29      CEL1    -0.150000       12.0110           0
     21744 MEMB     63       SAPI     H9R      HEL1     0.150000       1.00800           0
     21745 MEMB     63       SAPI     C210     CTL2    -0.180000       12.0110           0
     21746 MEMB     63       SAPI     H10R     HAL2     0.900000E-01   1.00800           0
     21747 MEMB     63       SAPI     H10S     HAL2     0.900000E-01   1.00800           0
     21748 MEMB     63       SAPI     C211     CEL1    -0.150000       12.0110           0
     21749 MEMB     63       SAPI     H11R     HEL1     0.150000       1.00800           0
     21750 MEMB     63       SAPI     C212     CEL1    -0.150000       12.0110           0
     21751 MEMB     63       SAPI     H12R     HEL1     0.150000       1.00800           0
     21752 MEMB     63       SAPI     C213     CTL2    -0.180000       12.0110           0
     21753 MEMB     63       SAPI     H13R     HAL2     0.900000E-01   1.00800           0
     21754 MEMB     63       SAPI     H13S     HAL2     0.900000E-01   1.00800           0
     21755 MEMB     63       SAPI     C214     CEL1    -0.150000       12.0110           0
     21756 MEMB     63       SAPI     H14R     HEL1     0.150000       1.00800           0
     21757 MEMB     63       SAPI     C215     CEL1    -0.150000       12.0110           0
     21758 MEMB     63       SAPI     H15R     HEL1     0.150000       1.00800           0
     21759 MEMB     63       SAPI     C216     CTL2    -0.180000       12.0110           0
     21760 MEMB     63       SAPI     H16R     HAL2     0.900000E-01   1.00800           0
     21761 MEMB     63       SAPI     H16S     HAL2     0.900000E-01   1.00800           0
     21762 MEMB     63       SAPI     C217     CTL2    -0.180000       12.0110           0
     21763 MEMB     63       SAPI     H17R     HAL2     0.900000E-01   1.00800           0
     21764 MEMB     63       SAPI     H17S     HAL2     0.900000E-01   1.00800           0
     21765 MEMB     63       SAPI     C218     CTL2    -0.180000       12.0110           0
     21766 MEMB     63       SAPI     H18R     HAL2     0.900000E-01   1.00800           0
     21767 MEMB     63       SAPI     H18S     HAL2     0.900000E-01   1.00800           0
     21768 MEMB     63       SAPI     C219     CTL2    -0.180000       12.0110           0
     21769 MEMB     63       SAPI     H19R     HAL2     0.900000E-01   1.00800           0
     21770 MEMB     63       SAPI     H19S     HAL2     0.900000E-01   1.00800           0
     21771 MEMB     63       SAPI     C220     CTL3    -0.270000       12.0110           0
     21772 MEMB     63       SAPI     H20R     HAL3     0.900000E-01   1.00800           0
     21773 MEMB     63       SAPI     H20S     HAL3     0.900000E-01   1.00800           0
     21774 MEMB     63       SAPI     H20T     HAL3     0.900000E-01   1.00800           0
     21775 MEMB     63       SAPI     C33      CTL2    -0.180000       12.0110           0
     21776 MEMB     63       SAPI     H3X      HAL2     0.900000E-01   1.00800           0
     21777 MEMB     63       SAPI     H3Y      HAL2     0.900000E-01   1.00800           0
     21778 MEMB     63       SAPI     C34      CTL2    -0.180000       12.0110           0
     21779 MEMB     63       SAPI     H4X      HAL2     0.900000E-01   1.00800           0
     21780 MEMB     63       SAPI     H4Y      HAL2     0.900000E-01   1.00800           0
     21781 MEMB     63       SAPI     C35      CTL2    -0.180000       12.0110           0
     21782 MEMB     63       SAPI     H5X      HAL2     0.900000E-01   1.00800           0
     21783 MEMB     63       SAPI     H5Y      HAL2     0.900000E-01   1.00800           0
     21784 MEMB     63       SAPI     C36      CTL2    -0.180000       12.0110           0
     21785 MEMB     63       SAPI     H6X      HAL2     0.900000E-01   1.00800           0
     21786 MEMB     63       SAPI     H6Y      HAL2     0.900000E-01   1.00800           0
     21787 MEMB     63       SAPI     C37      CTL2    -0.180000       12.0110           0
     21788 MEMB     63       SAPI     H7X      HAL2     0.900000E-01   1.00800           0
     21789 MEMB     63       SAPI     H7Y      HAL2     0.900000E-01   1.00800           0
     21790 MEMB     63       SAPI     C38      CTL2    -0.180000       12.0110           0
     21791 MEMB     63       SAPI     H8X      HAL2     0.900000E-01   1.00800           0
     21792 MEMB     63       SAPI     H8Y      HAL2     0.900000E-01   1.00800           0
     21793 MEMB     63       SAPI     C39      CTL2    -0.180000       12.0110           0
     21794 MEMB     63       SAPI     H9X      HAL2     0.900000E-01   1.00800           0
     21795 MEMB     63       SAPI     H9Y      HAL2     0.900000E-01   1.00800           0
     21796 MEMB     63       SAPI     C310     CTL2    -0.180000       12.0110           0
     21797 MEMB     63       SAPI     H10X     HAL2     0.900000E-01   1.00800           0
     21798 MEMB     63       SAPI     H10Y     HAL2     0.900000E-01   1.00800           0
     21799 MEMB     63       SAPI     C311     CTL2    -0.180000       12.0110           0
     21800 MEMB     63       SAPI     H11X     HAL2     0.900000E-01   1.00800           0
     21801 MEMB     63       SAPI     H11Y     HAL2     0.900000E-01   1.00800           0
     21802 MEMB     63       SAPI     C312     CTL2    -0.180000       12.0110           0
     21803 MEMB     63       SAPI     H12X     HAL2     0.900000E-01   1.00800           0
     21804 MEMB     63       SAPI     H12Y     HAL2     0.900000E-01   1.00800           0
     21805 MEMB     63       SAPI     C313     CTL2    -0.180000       12.0110           0
     21806 MEMB     63       SAPI     H13X     HAL2     0.900000E-01   1.00800           0
     21807 MEMB     63       SAPI     H13Y     HAL2     0.900000E-01   1.00800           0
     21808 MEMB     63       SAPI     C314     CTL2    -0.180000       12.0110           0
     21809 MEMB     63       SAPI     H14X     HAL2     0.900000E-01   1.00800           0
     21810 MEMB     63       SAPI     H14Y     HAL2     0.900000E-01   1.00800           0
     21811 MEMB     63       SAPI     C315     CTL2    -0.180000       12.0110           0
     21812 MEMB     63       SAPI     H15X     HAL2     0.900000E-01   1.00800           0
     21813 MEMB     63       SAPI     H15Y     HAL2     0.900000E-01   1.00800           0
     21814 MEMB     63       SAPI     C316     CTL2    -0.180000       12.0110           0
     21815 MEMB     63       SAPI     H16X     HAL2     0.900000E-01   1.00800           0
     21816 MEMB     63       SAPI     H16Y     HAL2     0.900000E-01   1.00800           0
     21817 MEMB     63       SAPI     C317     CTL2    -0.180000       12.0110           0
     21818 MEMB     63       SAPI     H17X     HAL2     0.900000E-01   1.00800           0
     21819 MEMB     63       SAPI     H17Y     HAL2     0.900000E-01   1.00800           0
     21820 MEMB     63       SAPI     C318     CTL3    -0.270000       12.0110           0
     21821 MEMB     63       SAPI     H18X     HAL3     0.900000E-01   1.00800           0
     21822 MEMB     63       SAPI     H18Y     HAL3     0.900000E-01   1.00800           0
     21823 MEMB     63       SAPI     H18Z     HAL3     0.900000E-01   1.00800           0
     21824 MEMB     78       SAPI     C12      CC3161   0.140000       12.0110           0
     21825 MEMB     78       SAPI     H2       HCA1     0.900000E-01   1.00800           0
     21826 MEMB     78       SAPI     O2       OC311   -0.650000       15.9994           0
     21827 MEMB     78       SAPI     HO2      HCP1     0.420000       1.00800           0
     21828 MEMB     78       SAPI     C13      CC3161   0.140000       12.0110           0
     21829 MEMB     78       SAPI     H3       HCA1     0.900000E-01   1.00800           0
     21830 MEMB     78       SAPI     O3       OC311   -0.650000       15.9994           0
     21831 MEMB     78       SAPI     HO3      HCP1     0.420000       1.00800           0
     21832 MEMB     78       SAPI     C14      CC3161   0.140000       12.0110           0
     21833 MEMB     78       SAPI     H4       HCA1     0.900000E-01   1.00800           0
     21834 MEMB     78       SAPI     O4       OC311   -0.650000       15.9994           0
     21835 MEMB     78       SAPI     HO4      HCP1     0.420000       1.00800           0
     21836 MEMB     78       SAPI     C15      CC3161   0.140000       12.0110           0
     21837 MEMB     78       SAPI     H5       HCA1     0.900000E-01   1.00800           0
     21838 MEMB     78       SAPI     O5       OC311   -0.650000       15.9994           0
     21839 MEMB     78       SAPI     HO5      HCP1     0.420000       1.00800           0
     21840 MEMB     78       SAPI     C16      CC3161   0.140000       12.0110           0
     21841 MEMB     78       SAPI     H6       HCA1     0.900000E-01   1.00800           0
     21842 MEMB     78       SAPI     O6       OC311   -0.650000       15.9994           0
     21843 MEMB     78       SAPI     HO6      HCP1     0.420000       1.00800           0
     21844 MEMB     78       SAPI     C11      CC3161  -0.800000E-01   12.0110           0
     21845 MEMB     78       SAPI     H1       HCA1     0.900000E-01   1.00800           0
     21846 MEMB     78       SAPI     P        PL       1.590000       30.9740           0
     21847 MEMB     78       SAPI     O13      O2L     -0.780000       15.9994           0
     21848 MEMB     78       SAPI     O14      O2L     -0.780000       15.9994           0
     21849 MEMB     78       SAPI     O12      OC30P   -0.570000       15.9994           0
     21850 MEMB     78       SAPI     O11      OSLP    -0.570000       15.9994           0
     21851 MEMB     78       SAPI     C1       CTL2    -0.800000E-01   12.0110           0
     21852 MEMB     78       SAPI     HA       HAL2     0.900000E-01   1.00800           0
     21853 MEMB     78       SAPI     HB       HAL2     0.900000E-01   1.00800           0
     21854 MEMB     78       SAPI     C2       CTL1     0.170000       12.0110           0
     21855 MEMB     78       SAPI     HS       HAL1     0.900000E-01   1.00800           0
     21856 MEMB     78       SAPI     O21      OSL     -0.490000       15.9994           0
     21857 MEMB     78       SAPI     C21      CL       0.900000       12.0110           0
     21858 MEMB     78       SAPI     O22      OBL     -0.630000       15.9994           0
     21859 MEMB     78       SAPI     C22      CTL2    -0.220000       12.0110           0
     21860 MEMB     78       SAPI     H2R      HAL2     0.900000E-01   1.00800           0
     21861 MEMB     78       SAPI     H2S      HAL2     0.900000E-01   1.00800           0
     21862 MEMB     78       SAPI     C3       CTL2     0.800000E-01   12.0110           0
     21863 MEMB     78       SAPI     HX       HAL2     0.900000E-01   1.00800           0
     21864 MEMB     78       SAPI     HY       HAL2     0.900000E-01   1.00800           0
     21865 MEMB     78       SAPI     O31      OSL     -0.490000       15.9994           0
     21866 MEMB     78       SAPI     C31      CL       0.900000       12.0110           0
     21867 MEMB     78       SAPI     O32      OBL     -0.630000       15.9994           0
     21868 MEMB     78       SAPI     C32      CTL2    -0.220000       12.0110           0
     21869 MEMB     78       SAPI     H2X      HAL2     0.900000E-01   1.00800           0
     21870 MEMB     78       SAPI     H2Y      HAL2     0.900000E-01   1.00800           0
     21871 MEMB     78       SAPI     C23      CTL2    -0.180000       12.0110           0
     21872 MEMB     78       SAPI     H3R      HAL2     0.900000E-01   1.00800           0
     21873 MEMB     78       SAPI     H3S      HAL2     0.900000E-01   1.00800           0
     21874 MEMB     78       SAPI     C24      CTL2    -0.180000       12.0110           0
     21875 MEMB     78       SAPI     H4R      HAL2     0.900000E-01   1.00800           0
     21876 MEMB     78       SAPI     H4S      HAL2     0.900000E-01   1.00800           0
     21877 MEMB     78       SAPI     C25      CEL1    -0.150000       12.0110           0
     21878 MEMB     78       SAPI     H5R      HEL1     0.150000       1.00800           0
     21879 MEMB     78       SAPI     C26      CEL1    -0.150000       12.0110           0
     21880 MEMB     78       SAPI     H6R      HEL1     0.150000       1.00800           0
     21881 MEMB     78       SAPI     C27      CTL2    -0.180000       12.0110           0
     21882 MEMB     78       SAPI     H7R      HAL2     0.900000E-01   1.00800           0
     21883 MEMB     78       SAPI     H7S      HAL2     0.900000E-01   1.00800           0
     21884 MEMB     78       SAPI     C28      CEL1    -0.150000       12.0110           0
     21885 MEMB     78       SAPI     H8R      HEL1     0.150000       1.00800           0
     21886 MEMB     78       SAPI     C29      CEL1    -0.150000       12.0110           0
     21887 MEMB     78       SAPI     H9R      HEL1     0.150000       1.00800           0
     21888 MEMB     78       SAPI     C210     CTL2    -0.180000       12.0110           0
     21889 MEMB     78       SAPI     H10R     HAL2     0.900000E-01   1.00800           0
     21890 MEMB     78       SAPI     H10S     HAL2     0.900000E-01   1.00800           0
     21891 MEMB     78       SAPI     C211     CEL1    -0.150000       12.0110           0
     21892 MEMB     78       SAPI     H11R     HEL1     0.150000       1.00800           0
     21893 MEMB     78       SAPI     C212     CEL1    -0.150000       12.0110           0
     21894 MEMB     78       SAPI     H12R     HEL1     0.150000       1.00800           0
     21895 MEMB     78       SAPI     C213     CTL2    -0.180000       12.0110           0
     21896 MEMB     78       SAPI     H13R     HAL2     0.900000E-01   1.00800           0
     21897 MEMB     78       SAPI     H13S     HAL2     0.900000E-01   1.00800           0
     21898 MEMB     78       SAPI     C214     CEL1    -0.150000       12.0110           0
     21899 MEMB     78       SAPI     H14R     HEL1     0.150000       1.00800           0
     21900 MEMB     78       SAPI     C215     CEL1    -0.150000       12.0110           0
     21901 MEMB     78       SAPI     H15R     HEL1     0.150000       1.00800           0
     21902 MEMB     78       SAPI     C216     CTL2    -0.180000       12.0110           0
     21903 MEMB     78       SAPI     H16R     HAL2     0.900000E-01   1.00800           0
     21904 MEMB     78       SAPI     H16S     HAL2     0.900000E-01   1.00800           0
     21905 MEMB     78       SAPI     C217     CTL2    -0.180000       12.0110           0
     21906 MEMB     78       SAPI     H17R     HAL2     0.900000E-01   1.00800           0
     21907 MEMB     78       SAPI     H17S     HAL2     0.900000E-01   1.00800           0
     21908 MEMB     78       SAPI     C218     CTL2    -0.180000       12.0110           0
     21909 MEMB     78       SAPI     H18R     HAL2     0.900000E-01   1.00800           0
     21910 MEMB     78       SAPI     H18S     HAL2     0.900000E-01   1.00800           0
     21911 MEMB     78       SAPI     C219     CTL2    -0.180000       12.0110           0
     21912 MEMB     78       SAPI     H19R     HAL2     0.900000E-01   1.00800           0
     21913 MEMB     78       SAPI     H19S     HAL2     0.900000E-01   1.00800           0
     21914 MEMB     78       SAPI     C220     CTL3    -0.270000       12.0110           0
     21915 MEMB     78       SAPI     H20R     HAL3     0.900000E-01   1.00800           0
     21916 MEMB     78       SAPI     H20S     HAL3     0.900000E-01   1.00800           0
     21917 MEMB     78       SAPI     H20T     HAL3     0.900000E-01   1.00800           0
     21918 MEMB     78       SAPI     C33      CTL2    -0.180000       12.0110           0
     21919 MEMB     78       SAPI     H3X      HAL2     0.900000E-01   1.00800           0
     21920 MEMB     78       SAPI     H3Y      HAL2     0.900000E-01   1.00800           0
     21921 MEMB     78       SAPI     C34      CTL2    -0.180000       12.0110           0
     21922 MEMB     78       SAPI     H4X      HAL2     0.900000E-01   1.00800           0
     21923 MEMB     78       SAPI     H4Y      HAL2     0.900000E-01   1.00800           0
     21924 MEMB     78       SAPI     C35      CTL2    -0.180000       12.0110           0
     21925 MEMB     78       SAPI     H5X      HAL2     0.900000E-01   1.00800           0
     21926 MEMB     78       SAPI     H5Y      HAL2     0.900000E-01   1.00800           0
     21927 MEMB     78       SAPI     C36      CTL2    -0.180000       12.0110           0
     21928 MEMB     78       SAPI     H6X      HAL2     0.900000E-01   1.00800           0
     21929 MEMB     78       SAPI     H6Y      HAL2     0.900000E-01   1.00800           0
     21930 MEMB     78       SAPI     C37      CTL2    -0.180000       12.0110           0
     21931 MEMB     78       SAPI     H7X      HAL2     0.900000E-01   1.00800           0
     21932 MEMB     78       SAPI     H7Y      HAL2     0.900000E-01   1.00800           0
     21933 MEMB     78       SAPI     C38      CTL2    -0.180000       12.0110           0
     21934 MEMB     78       SAPI     H8X      HAL2     0.900000E-01   1.00800           0
     21935 MEMB     78       SAPI     H8Y      HAL2     0.900000E-01   1.00800           0
     21936 MEMB     78       SAPI     C39      CTL2    -0.180000       12.0110           0
     21937 MEMB     78       SAPI     H9X      HAL2     0.900000E-01   1.00800           0
     21938 MEMB     78       SAPI     H9Y      HAL2     0.900000E-01   1.00800           0
     21939 MEMB     78       SAPI     C310     CTL2    -0.180000       12.0110           0
     21940 MEMB     78       SAPI     H10X     HAL2     0.900000E-01   1.00800           0
     21941 MEMB     78       SAPI     H10Y     HAL2     0.900000E-01   1.00800           0
     21942 MEMB     78       SAPI     C311     CTL2    -0.180000       12.0110           0
     21943 MEMB     78       SAPI     H11X     HAL2     0.900000E-01   1.00800           0
     21944 MEMB     78       SAPI     H11Y     HAL2     0.900000E-01   1.00800           0
     21945 MEMB     78       SAPI     C312     CTL2    -0.180000       12.0110           0
     21946 MEMB     78       SAPI     H12X     HAL2     0.900000E-01   1.00800           0
     21947 MEMB     78       SAPI     H12Y     HAL2     0.900000E-01   1.00800           0
     21948 MEMB     78       SAPI     C313     CTL2    -0.180000       12.0110           0
     21949 MEMB     78       SAPI     H13X     HAL2     0.900000E-01   1.00800           0
     21950 MEMB     78       SAPI     H13Y     HAL2     0.900000E-01   1.00800           0
     21951 MEMB     78       SAPI     C314     CTL2    -0.180000       12.0110           0
     21952 MEMB     78       SAPI     H14X     HAL2     0.900000E-01   1.00800           0
     21953 MEMB     78       SAPI     H14Y     HAL2     0.900000E-01   1.00800           0
     21954 MEMB     78       SAPI     C315     CTL2    -0.180000       12.0110           0
     21955 MEMB     78       SAPI     H15X     HAL2     0.900000E-01   1.00800           0
     21956 MEMB     78       SAPI     H15Y     HAL2     0.900000E-01   1.00800           0
     21957 MEMB     78       SAPI     C316     CTL2    -0.180000       12.0110           0
     21958 MEMB     78       SAPI     H16X     HAL2     0.900000E-01   1.00800           0
     21959 MEMB     78       SAPI     H16Y     HAL2     0.900000E-01   1.00800           0
     21960 MEMB     78       SAPI     C317     CTL2    -0.180000       12.0110           0
     21961 MEMB     78       SAPI     H17X     HAL2     0.900000E-01   1.00800           0
     21962 MEMB     78       SAPI     H17Y     HAL2     0.900000E-01   1.00800           0
     21963 MEMB     78       SAPI     C318     CTL3    -0.270000       12.0110           0
     21964 MEMB     78       SAPI     H18X     HAL3     0.900000E-01   1.00800           0
     21965 MEMB     78       SAPI     H18Y     HAL3     0.900000E-01   1.00800           0
     21966 MEMB     78       SAPI     H18Z     HAL3     0.900000E-01   1.00800           0
     21967 MEMB     103      SAPI     C12      CC3161   0.140000       12.0110           0
     21968 MEMB     103      SAPI     H2       HCA1     0.900000E-01   1.00800           0
     21969 MEMB     103      SAPI     O2       OC311   -0.650000       15.9994           0
     21970 MEMB     103      SAPI     HO2      HCP1     0.420000       1.00800           0
     21971 MEMB     103      SAPI     C13      CC3161   0.140000       12.0110           0
     21972 MEMB     103      SAPI     H3       HCA1     0.900000E-01   1.00800           0
     21973 MEMB     103      SAPI     O3       OC311   -0.650000       15.9994           0
     21974 MEMB     103      SAPI     HO3      HCP1     0.420000       1.00800           0
     21975 MEMB     103      SAPI     C14      CC3161   0.140000       12.0110           0
     21976 MEMB     103      SAPI     H4       HCA1     0.900000E-01   1.00800           0
     21977 MEMB     103      SAPI     O4       OC311   -0.650000       15.9994           0
     21978 MEMB     103      SAPI     HO4      HCP1     0.420000       1.00800           0
     21979 MEMB     103      SAPI     C15      CC3161   0.140000       12.0110           0
     21980 MEMB     103      SAPI     H5       HCA1     0.900000E-01   1.00800           0
     21981 MEMB     103      SAPI     O5       OC311   -0.650000       15.9994           0
     21982 MEMB     103      SAPI     HO5      HCP1     0.420000       1.00800           0
     21983 MEMB     103      SAPI     C16      CC3161   0.140000       12.0110           0
     21984 MEMB     103      SAPI     H6       HCA1     0.900000E-01   1.00800           0
     21985 MEMB     103      SAPI     O6       OC311   -0.650000       15.9994           0
     21986 MEMB     103      SAPI     HO6      HCP1     0.420000       1.00800           0
     21987 MEMB     103      SAPI     C11      CC3161  -0.800000E-01   12.0110           0
     21988 MEMB     103      SAPI     H1       HCA1     0.900000E-01   1.00800           0
     21989 MEMB     103      SAPI     P        PL       1.590000       30.9740           0
     21990 MEMB     103      SAPI     O13      O2L     -0.780000       15.9994           0
     21991 MEMB     103      SAPI     O14      O2L     -0.780000       15.9994           0
     21992 MEMB     103      SAPI     O12      OC30P   -0.570000       15.9994           0
     21993 MEMB     103      SAPI     O11      OSLP    -0.570000       15.9994           0
     21994 MEMB     103      SAPI     C1       CTL2    -0.800000E-01   12.0110           0
     21995 MEMB     103      SAPI     HA       HAL2     0.900000E-01   1.00800           0
     21996 MEMB     103      SAPI     HB       HAL2     0.900000E-01   1.00800           0
     21997 MEMB     103      SAPI     C2       CTL1     0.170000       12.0110           0
     21998 MEMB     103      SAPI     HS       HAL1     0.900000E-01   1.00800           0
     21999 MEMB     103      SAPI     O21      OSL     -0.490000       15.9994           0
     22000 MEMB     103      SAPI     C21      CL       0.900000       12.0110           0
     22001 MEMB     103      SAPI     O22      OBL     -0.630000       15.9994           0
     22002 MEMB     103      SAPI     C22      CTL2    -0.220000       12.0110           0
     22003 MEMB     103      SAPI     H2R      HAL2     0.900000E-01   1.00800           0
     22004 MEMB     103      SAPI     H2S      HAL2     0.900000E-01   1.00800           0
     22005 MEMB     103      SAPI     C3       CTL2     0.800000E-01   12.0110           0
     22006 MEMB     103      SAPI     HX       HAL2     0.900000E-01   1.00800           0
     22007 MEMB     103      SAPI     HY       HAL2     0.900000E-01   1.00800           0
     22008 MEMB     103      SAPI     O31      OSL     -0.490000       15.9994           0
     22009 MEMB     103      SAPI     C31      CL       0.900000       12.0110           0
     22010 MEMB     103      SAPI     O32      OBL     -0.630000       15.9994           0
     22011 MEMB     103      SAPI     C32      CTL2    -0.220000       12.0110           0
     22012 MEMB     103      SAPI     H2X      HAL2     0.900000E-01   1.00800           0
     22013 MEMB     103      SAPI     H2Y      HAL2     0.900000E-01   1.00800           0
     22014 MEMB     103      SAPI     C23      CTL2    -0.180000       12.0110           0
     22015 MEMB     103      SAPI     H3R      HAL2     0.900000E-01   1.00800           0
     22016 MEMB     103      SAPI     H3S      HAL2     0.900000E-01   1.00800           0
     22017 MEMB     103      SAPI     C24      CTL2    -0.180000       12.0110           0
     22018 MEMB     103      SAPI     H4R      HAL2     0.900000E-01   1.00800           0
     22019 MEMB     103      SAPI     H4S      HAL2     0.900000E-01   1.00800           0
     22020 MEMB     103      SAPI     C25      CEL1    -0.150000       12.0110           0
     22021 MEMB     103      SAPI     H5R      HEL1     0.150000       1.00800           0
     22022 MEMB     103      SAPI     C26      CEL1    -0.150000       12.0110           0
     22023 MEMB     103      SAPI     H6R      HEL1     0.150000       1.00800           0
     22024 MEMB     103      SAPI     C27      CTL2    -0.180000       12.0110           0
     22025 MEMB     103      SAPI     H7R      HAL2     0.900000E-01   1.00800           0
     22026 MEMB     103      SAPI     H7S      HAL2     0.900000E-01   1.00800           0
     22027 MEMB     103      SAPI     C28      CEL1    -0.150000       12.0110           0
     22028 MEMB     103      SAPI     H8R      HEL1     0.150000       1.00800           0
     22029 MEMB     103      SAPI     C29      CEL1    -0.150000       12.0110           0
     22030 MEMB     103      SAPI     H9R      HEL1     0.150000       1.00800           0
     22031 MEMB     103      SAPI     C210     CTL2    -0.180000       12.0110           0
     22032 MEMB     103      SAPI     H10R     HAL2     0.900000E-01   1.00800           0
     22033 MEMB     103      SAPI     H10S     HAL2     0.900000E-01   1.00800           0
     22034 MEMB     103      SAPI     C211     CEL1    -0.150000       12.0110           0
     22035 MEMB     103      SAPI     H11R     HEL1     0.150000       1.00800           0
     22036 MEMB     103      SAPI     C212     CEL1    -0.150000       12.0110           0
     22037 MEMB     103      SAPI     H12R     HEL1     0.150000       1.00800           0
     22038 MEMB     103      SAPI     C213     CTL2    -0.180000       12.0110           0
     22039 MEMB     103      SAPI     H13R     HAL2     0.900000E-01   1.00800           0
     22040 MEMB     103      SAPI     H13S     HAL2     0.900000E-01   1.00800           0
     22041 MEMB     103      SAPI     C214     CEL1    -0.150000       12.0110           0
     22042 MEMB     103      SAPI     H14R     HEL1     0.150000       1.00800           0
     22043 MEMB     103      SAPI     C215     CEL1    -0.150000       12.0110           0
     22044 MEMB     103      SAPI     H15R     HEL1     0.150000       1.00800           0
     22045 MEMB     103      SAPI     C216     CTL2    -0.180000       12.0110           0
     22046 MEMB     103      SAPI     H16R     HAL2     0.900000E-01   1.00800           0
     22047 MEMB     103      SAPI     H16S     HAL2     0.900000E-01   1.00800           0
     22048 MEMB     103      SAPI     C217     CTL2    -0.180000       12.0110           0
     22049 MEMB     103      SAPI     H17R     HAL2     0.900000E-01   1.00800           0
     22050 MEMB     103      SAPI     H17S     HAL2     0.900000E-01   1.00800           0
     22051 MEMB     103      SAPI     C218     CTL2    -0.180000       12.0110           0
     22052 MEMB     103      SAPI     H18R     HAL2     0.900000E-01   1.00800           0
     22053 MEMB     103      SAPI     H18S     HAL2     0.900000E-01   1.00800           0
     22054 MEMB     103      SAPI     C219     CTL2    -0.180000       12.0110           0
     22055 MEMB     103      SAPI     H19R     HAL2     0.900000E-01   1.00800           0
     22056 MEMB     103      SAPI     H19S     HAL2     0.900000E-01   1.00800           0
     22057 MEMB     103      SAPI     C220     CTL3    -0.270000       12.0110           0
     22058 MEMB     103      SAPI     H20R     HAL3     0.900000E-01   1.00800           0
     22059 MEMB     103      SAPI     H20S     HAL3     0.900000E-01   1.00800           0
     22060 MEMB     103      SAPI     H20T     HAL3     0.900000E-01   1.00800           0
     22061 MEMB     103      SAPI     C33      CTL2    -0.180000       12.0110           0
     22062 MEMB     103      SAPI     H3X      HAL2     0.900000E-01   1.00800           0
     22063 MEMB     103      SAPI     H3Y      HAL2     0.900000E-01   1.00800           0
     22064 MEMB     103      SAPI     C34      CTL2    -0.180000       12.0110           0
     22065 MEMB     103      SAPI     H4X      HAL2     0.900000E-01   1.00800           0
     22066 MEMB     103      SAPI     H4Y      HAL2     0.900000E-01   1.00800           0
     22067 MEMB     103      SAPI     C35      CTL2    -0.180000       12.0110           0
     22068 MEMB     103      SAPI     H5X      HAL2     0.900000E-01   1.00800           0
     22069 MEMB     103      SAPI     H5Y      HAL2     0.900000E-01   1.00800           0
     22070 MEMB     103      SAPI     C36      CTL2    -0.180000       12.0110           0
     22071 MEMB     103      SAPI     H6X      HAL2     0.900000E-01   1.00800           0
     22072 MEMB     103      SAPI     H6Y      HAL2     0.900000E-01   1.00800           0
     22073 MEMB     103      SAPI     C37      CTL2    -0.180000       12.0110           0
     22074 MEMB     103      SAPI     H7X      HAL2     0.900000E-01   1.00800           0
     22075 MEMB     103      SAPI     H7Y      HAL2     0.900000E-01   1.00800           0
     22076 MEMB     103      SAPI     C38      CTL2    -0.180000       12.0110           0
     22077 MEMB     103      SAPI     H8X      HAL2     0.900000E-01   1.00800           0
     22078 MEMB     103      SAPI     H8Y      HAL2     0.900000E-01   1.00800           0
     22079 MEMB     103      SAPI     C39      CTL2    -0.180000       12.0110           0
     22080 MEMB     103      SAPI     H9X      HAL2     0.900000E-01   1.00800           0
     22081 MEMB     103      SAPI     H9Y      HAL2     0.900000E-01   1.00800           0
     22082 MEMB     103      SAPI     C310     CTL2    -0.180000       12.0110           0
     22083 MEMB     103      SAPI     H10X     HAL2     0.900000E-01   1.00800           0
     22084 MEMB     103      SAPI     H10Y     HAL2     0.900000E-01   1.00800           0
     22085 MEMB     103      SAPI     C311     CTL2    -0.180000       12.0110           0
     22086 MEMB     103      SAPI     H11X     HAL2     0.900000E-01   1.00800           0
     22087 MEMB     103      SAPI     H11Y     HAL2     0.900000E-01   1.00800           0
     22088 MEMB     103      SAPI     C312     CTL2    -0.180000       12.0110           0
     22089 MEMB     103      SAPI     H12X     HAL2     0.900000E-01   1.00800           0
     22090 MEMB     103      SAPI     H12Y     HAL2     0.900000E-01   1.00800           0
     22091 MEMB     103      SAPI     C313     CTL2    -0.180000       12.0110           0
     22092 MEMB     103      SAPI     H13X     HAL2     0.900000E-01   1.00800           0
     22093 MEMB     103      SAPI     H13Y     HAL2     0.900000E-01   1.00800           0
     22094 MEMB     103      SAPI     C314     CTL2    -0.180000       12.0110           0
     22095 MEMB     103      SAPI     H14X     HAL2     0.900000E-01   1.00800           0
     22096 MEMB     103      SAPI     H14Y     HAL2     0.900000E-01   1.00800           0
     22097 MEMB     103      SAPI     C315     CTL2    -0.180000       12.0110           0
     22098 MEMB     103      SAPI     H15X     HAL2     0.900000E-01   1.00800           0
     22099 MEMB     103      SAPI     H15Y     HAL2     0.900000E-01   1.00800           0
     22100 MEMB     103      SAPI     C316     CTL2    -0.180000       12.0110           0
     22101 MEMB     103      SAPI     H16X     HAL2     0.900000E-01   1.00800           0
     22102 MEMB     103      SAPI     H16Y     HAL2     0.900000E-01   1.00800           0
     22103 MEMB     103      SAPI     C317     CTL2    -0.180000       12.0110           0
     22104 MEMB     103      SAPI     H17X     HAL2     0.900000E-01   1.00800           0
     22105 MEMB     103      SAPI     H17Y     HAL2     0.900000E-01   1.00800           0
     22106 MEMB     103      SAPI     C318     CTL3    -0.270000       12.0110           0
     22107 MEMB     103      SAPI     H18X     HAL3     0.900000E-01   1.00800           0
     22108 MEMB     103      SAPI     H18Y     HAL3     0.900000E-01   1.00800           0
     22109 MEMB     103      SAPI     H18Z     HAL3     0.900000E-01   1.00800           0
     22110 MEMB     155      SAPI     C12      CC3161   0.140000       12.0110           0
     22111 MEMB     155      SAPI     H2       HCA1     0.900000E-01   1.00800           0
     22112 MEMB     155      SAPI     O2       OC311   -0.650000       15.9994           0
     22113 MEMB     155      SAPI     HO2      HCP1     0.420000       1.00800           0
     22114 MEMB     155      SAPI     C13      CC3161   0.140000       12.0110           0
     22115 MEMB     155      SAPI     H3       HCA1     0.900000E-01   1.00800           0
     22116 MEMB     155      SAPI     O3       OC311   -0.650000       15.9994           0
     22117 MEMB     155      SAPI     HO3      HCP1     0.420000       1.00800           0
     22118 MEMB     155      SAPI     C14      CC3161   0.140000       12.0110           0
     22119 MEMB     155      SAPI     H4       HCA1     0.900000E-01   1.00800           0
     22120 MEMB     155      SAPI     O4       OC311   -0.650000       15.9994           0
     22121 MEMB     155      SAPI     HO4      HCP1     0.420000       1.00800           0
     22122 MEMB     155      SAPI     C15      CC3161   0.140000       12.0110           0
     22123 MEMB     155      SAPI     H5       HCA1     0.900000E-01   1.00800           0
     22124 MEMB     155      SAPI     O5       OC311   -0.650000       15.9994           0
     22125 MEMB     155      SAPI     HO5      HCP1     0.420000       1.00800           0
     22126 MEMB     155      SAPI     C16      CC3161   0.140000       12.0110           0
     22127 MEMB     155      SAPI     H6       HCA1     0.900000E-01   1.00800           0
     22128 MEMB     155      SAPI     O6       OC311   -0.650000       15.9994           0
     22129 MEMB     155      SAPI     HO6      HCP1     0.420000       1.00800           0
     22130 MEMB     155      SAPI     C11      CC3161  -0.800000E-01   12.0110           0
     22131 MEMB     155      SAPI     H1       HCA1     0.900000E-01   1.00800           0
     22132 MEMB     155      SAPI     P        PL       1.590000       30.9740           0
     22133 MEMB     155      SAPI     O13      O2L     -0.780000       15.9994           0
     22134 MEMB     155      SAPI     O14      O2L     -0.780000       15.9994           0
     22135 MEMB     155      SAPI     O12      OC30P   -0.570000       15.9994           0
     22136 MEMB     155      SAPI     O11      OSLP    -0.570000       15.9994           0
     22137 MEMB     155      SAPI     C1       CTL2    -0.800000E-01   12.0110           0
     22138 MEMB     155      SAPI     HA       HAL2     0.900000E-01   1.00800           0
     22139 MEMB     155      SAPI     HB       HAL2     0.900000E-01   1.00800           0
     22140 MEMB     155      SAPI     C2       CTL1     0.170000       12.0110           0
     22141 MEMB     155      SAPI     HS       HAL1     0.900000E-01   1.00800           0
     22142 MEMB     155      SAPI     O21      OSL     -0.490000       15.9994           0
     22143 MEMB     155      SAPI     C21      CL       0.900000       12.0110           0
     22144 MEMB     155      SAPI     O22      OBL     -0.630000       15.9994           0
     22145 MEMB     155      SAPI     C22      CTL2    -0.220000       12.0110           0
     22146 MEMB     155      SAPI     H2R      HAL2     0.900000E-01   1.00800           0
     22147 MEMB     155      SAPI     H2S      HAL2     0.900000E-01   1.00800           0
     22148 MEMB     155      SAPI     C3       CTL2     0.800000E-01   12.0110           0
     22149 MEMB     155      SAPI     HX       HAL2     0.900000E-01   1.00800           0
     22150 MEMB     155      SAPI     HY       HAL2     0.900000E-01   1.00800           0
     22151 MEMB     155      SAPI     O31      OSL     -0.490000       15.9994           0
     22152 MEMB     155      SAPI     C31      CL       0.900000       12.0110           0
     22153 MEMB     155      SAPI     O32      OBL     -0.630000       15.9994           0
     22154 MEMB     155      SAPI     C32      CTL2    -0.220000       12.0110           0
     22155 MEMB     155      SAPI     H2X      HAL2     0.900000E-01   1.00800           0
     22156 MEMB     155      SAPI     H2Y      HAL2     0.900000E-01   1.00800           0
     22157 MEMB     155      SAPI     C23      CTL2    -0.180000       12.0110           0
     22158 MEMB     155      SAPI     H3R      HAL2     0.900000E-01   1.00800           0
     22159 MEMB     155      SAPI     H3S      HAL2     0.900000E-01   1.00800           0
     22160 MEMB     155      SAPI     C24      CTL2    -0.180000       12.0110           0
     22161 MEMB     155      SAPI     H4R      HAL2     0.900000E-01   1.00800           0
     22162 MEMB     155      SAPI     H4S      HAL2     0.900000E-01   1.00800           0
     22163 MEMB     155      SAPI     C25      CEL1    -0.150000       12.0110           0
     22164 MEMB     155      SAPI     H5R      HEL1     0.150000       1.00800           0
     22165 MEMB     155      SAPI     C26      CEL1    -0.150000       12.0110           0
     22166 MEMB     155      SAPI     H6R      HEL1     0.150000       1.00800           0
     22167 MEMB     155      SAPI     C27      CTL2    -0.180000       12.0110           0
     22168 MEMB     155      SAPI     H7R      HAL2     0.900000E-01   1.00800           0
     22169 MEMB     155      SAPI     H7S      HAL2     0.900000E-01   1.00800           0
     22170 MEMB     155      SAPI     C28      CEL1    -0.150000       12.0110           0
     22171 MEMB     155      SAPI     H8R      HEL1     0.150000       1.00800           0
     22172 MEMB     155      SAPI     C29      CEL1    -0.150000       12.0110           0
     22173 MEMB     155      SAPI     H9R      HEL1     0.150000       1.00800           0
     22174 MEMB     155      SAPI     C210     CTL2    -0.180000       12.0110           0
     22175 MEMB     155      SAPI     H10R     HAL2     0.900000E-01   1.00800           0
     22176 MEMB     155      SAPI     H10S     HAL2     0.900000E-01   1.00800           0
     22177 MEMB     155      SAPI     C211     CEL1    -0.150000       12.0110           0
     22178 MEMB     155      SAPI     H11R     HEL1     0.150000       1.00800           0
     22179 MEMB     155      SAPI     C212     CEL1    -0.150000       12.0110           0
     22180 MEMB     155      SAPI     H12R     HEL1     0.150000       1.00800           0
     22181 MEMB     155      SAPI     C213     CTL2    -0.180000       12.0110           0
     22182 MEMB     155      SAPI     H13R     HAL2     0.900000E-01   1.00800           0
     22183 MEMB     155      SAPI     H13S     HAL2     0.900000E-01   1.00800           0
     22184 MEMB     155      SAPI     C214     CEL1    -0.150000       12.0110           0
     22185 MEMB     155      SAPI     H14R     HEL1     0.150000       1.00800           0
     22186 MEMB     155      SAPI     C215     CEL1    -0.150000       12.0110           0
     22187 MEMB     155      SAPI     H15R     HEL1     0.150000       1.00800           0
     22188 MEMB     155      SAPI     C216     CTL2    -0.180000       12.0110           0
     22189 MEMB     155      SAPI     H16R     HAL2     0.900000E-01   1.00800           0
     22190 MEMB     155      SAPI     H16S     HAL2     0.900000E-01   1.00800           0
     22191 MEMB     155      SAPI     C217     CTL2    -0.180000       12.0110           0
     22192 MEMB     155      SAPI     H17R     HAL2     0.900000E-01   1.00800           0
     22193 MEMB     155      SAPI     H17S     HAL2     0.900000E-01   1.00800           0
     22194 MEMB     155      SAPI     C218     CTL2    -0.180000       12.0110           0
     22195 MEMB     155      SAPI     H18R     HAL2     0.900000E-01   1.00800           0
     22196 MEMB     155      SAPI     H18S     HAL2     0.900000E-01   1.00800           0
     22197 MEMB     155      SAPI     C219     CTL2    -0.180000       12.0110           0
     22198 MEMB     155      SAPI     H19R     HAL2     0.900000E-01   1.00800           0
     22199 MEMB     155      SAPI     H19S     HAL2     0.900000E-01   1.00800           0
     22200 MEMB     155      SAPI     C220     CTL3    -0.270000       12.0110           0
     22201 MEMB     155      SAPI     H20R     HAL3     0.900000E-01   1.00800           0
     22202 MEMB     155      SAPI     H20S     HAL3     0.900000E-01   1.00800           0
     22203 MEMB     155      SAPI     H20T     HAL3     0.900000E-01   1.00800           0
     22204 MEMB     155      SAPI     C33      CTL2    -0.180000       12.0110           0
     22205 MEMB     155      SAPI     H3X      HAL2     0.900000E-01   1.00800           0
     22206 MEMB     155      SAPI     H3Y      HAL2     0.900000E-01   1.00800           0
     22207 MEMB     155      SAPI     C34      CTL2    -0.180000       12.0110           0
     22208 MEMB     155      SAPI     H4X      HAL2     0.900000E-01   1.00800           0
     22209 MEMB     155      SAPI     H4Y      HAL2     0.900000E-01   1.00800           0
     22210 MEMB     155      SAPI     C35      CTL2    -0.180000       12.0110           0
     22211 MEMB     155      SAPI     H5X      HAL2     0.900000E-01   1.00800           0
     22212 MEMB     155      SAPI     H5Y      HAL2     0.900000E-01   1.00800           0
     22213 MEMB     155      SAPI     C36      CTL2    -0.180000       12.0110           0
     22214 MEMB     155      SAPI     H6X      HAL2     0.900000E-01   1.00800           0
     22215 MEMB     155      SAPI     H6Y      HAL2     0.900000E-01   1.00800           0
     22216 MEMB     155      SAPI     C37      CTL2    -0.180000       12.0110           0
     22217 MEMB     155      SAPI     H7X      HAL2     0.900000E-01   1.00800           0
     22218 MEMB     155      SAPI     H7Y      HAL2     0.900000E-01   1.00800           0
     22219 MEMB     155      SAPI     C38      CTL2    -0.180000       12.0110           0
     22220 MEMB     155      SAPI     H8X      HAL2     0.900000E-01   1.00800           0
     22221 MEMB     155      SAPI     H8Y      HAL2     0.900000E-01   1.00800           0
     22222 MEMB     155      SAPI     C39      CTL2    -0.180000       12.0110           0
     22223 MEMB     155      SAPI     H9X      HAL2     0.900000E-01   1.00800           0
     22224 MEMB     155      SAPI     H9Y      HAL2     0.900000E-01   1.00800           0
     22225 MEMB     155      SAPI     C310     CTL2    -0.180000       12.0110           0
     22226 MEMB     155      SAPI     H10X     HAL2     0.900000E-01   1.00800           0
     22227 MEMB     155      SAPI     H10Y     HAL2     0.900000E-01   1.00800           0
     22228 MEMB     155      SAPI     C311     CTL2    -0.180000       12.0110           0
     22229 MEMB     155      SAPI     H11X     HAL2     0.900000E-01   1.00800           0
     22230 MEMB     155      SAPI     H11Y     HAL2     0.900000E-01   1.00800           0
     22231 MEMB     155      SAPI     C312     CTL2    -0.180000       12.0110           0
     22232 MEMB     155      SAPI     H12X     HAL2     0.900000E-01   1.00800           0
     22233 MEMB     155      SAPI     H12Y     HAL2     0.900000E-01   1.00800           0
     22234 MEMB     155      SAPI     C313     CTL2    -0.180000       12.0110           0
     22235 MEMB     155      SAPI     H13X     HAL2     0.900000E-01   1.00800           0
     22236 MEMB     155      SAPI     H13Y     HAL2     0.900000E-01   1.00800           0
     22237 MEMB     155      SAPI     C314     CTL2    -0.180000       12.0110           0
     22238 MEMB     155      SAPI     H14X     HAL2     0.900000E-01   1.00800           0
     22239 MEMB     155      SAPI     H14Y     HAL2     0.900000E-01   1.00800           0
     22240 MEMB     155      SAPI     C315     CTL2    -0.180000       12.0110           0
     22241 MEMB     155      SAPI     H15X     HAL2     0.900000E-01   1.00800           0
     22242 MEMB     155      SAPI     H15Y     HAL2     0.900000E-01   1.00800           0
     22243 MEMB     155      SAPI     C316     CTL2    -0.180000       12.0110           0
     22244 MEMB     155      SAPI     H16X     HAL2     0.900000E-01   1.00800           0
     22245 MEMB     155      SAPI     H16Y     HAL2     0.900000E-01   1.00800           0
     22246 MEMB     155      SAPI     C317     CTL2    -0.180000       12.0110           0
     22247 MEMB     155      SAPI     H17X     HAL2     0.900000E-01   1.00800           0
     22248 MEMB     155      SAPI     H17Y     HAL2     0.900000E-01   1.00800           0
     22249 MEMB     155      SAPI     C318     CTL3    -0.270000       12.0110           0
     22250 MEMB     155      SAPI     H18X     HAL3     0.900000E-01   1.00800           0
     22251 MEMB     155      SAPI     H18Y     HAL3     0.900000E-01   1.00800           0
     22252 MEMB     155      SAPI     H18Z     HAL3     0.900000E-01   1.00800           0
     22253 IONS     1        SOD      SOD      SOD      1.000000       22.9898           0
     22254 IONS     2        SOD      SOD      SOD      1.000000       22.9898           0
     22255 IONS     3        SOD      SOD      SOD      1.000000       22.9898           0
     22256 IONS     4        SOD      SOD      SOD      1.000000       22.9898           0
     22257 IONS     5        SOD      SOD      SOD      1.000000       22.9898           0
     22258 IONS     6        SOD      SOD      SOD      1.000000       22.9898           0
     22259 IONS     7        SOD      SOD      SOD      1.000000       22.9898           0
     22260 IONS     8        SOD      SOD      SOD      1.000000       22.9898           0
     22261 IONS     9        SOD      SOD      SOD      1.000000       22.9898           0
     22262 IONS     10       SOD      SOD      SOD      1.000000       22.9898           0
     22263 IONS     11       SOD      SOD      SOD      1.000000       22.9898           0
     22264 IONS     12       SOD      SOD      SOD      1.000000       22.9898           0
     22265 IONS     13       SOD      SOD      SOD      1.000000       22.9898           0
     22266 IONS     14       SOD      SOD      SOD      1.000000       22.9898           0
     22267 IONS     15       SOD      SOD      SOD      1.000000       22.9898           0
     22268 IONS     16       SOD      SOD      SOD      1.000000       22.9898           0
     22269 IONS     17       SOD      SOD      SOD      1.000000       22.9898           0
     22270 IONS     18       SOD      SOD      SOD      1.000000       22.9898           0
     22271 IONS     19       SOD      SOD      SOD      1.000000       22.9898           0
     22272 IONS     20       SOD      SOD      SOD      1.000000       22.9898           0
     22273 IONS     21       SOD      SOD      SOD      1.000000       22.9898           0
     22274 IONS     22       SOD      SOD      SOD      1.000000       22.9898           0
     22275 IONS     23       SOD      SOD      SOD      1.000000       22.9898           0
     22276 IONS     24       SOD      SOD      SOD      1.000000       22.9898           0
     22277 IONS     25       SOD      SOD      SOD      1.000000       22.9898           0
     22278 IONS     26       SOD      SOD      SOD      1.000000       22.9898           0
     22279 IONS     27       SOD      SOD      SOD      1.000000       22.9898           0
     22280 IONS     28       SOD      SOD      SOD      1.000000       22.9898           0
     22281 IONS     29       SOD      SOD      SOD      1.000000       22.9898           0
     22282 IONS     30       SOD      SOD      SOD      1.000000       22.9898           0
     22283 IONS     31       SOD      SOD      SOD      1.000000       22.9898           0
     22284 IONS     32       SOD      SOD      SOD      1.000000       22.9898           0
     22285 IONS     33       SOD      SOD      SOD      1.000000       22.9898           0
     22286 IONS     34       SOD      SOD      SOD      1.000000       22.9898           0
     22287 IONS     35       SOD      SOD      SOD      1.000000       22.9898           0
     22288 IONS     36       SOD      SOD      SOD      1.000000       22.9898           0
     22289 IONS     37       SOD      SOD      SOD      1.000000       22.9898           0
     22290 IONS     38       SOD      SOD      SOD      1.000000       22.9898           0
     22291 IONS     39       SOD      SOD      SOD      1.000000       22.9898           0
     22292 IONS     40       SOD      SOD      SOD      1.000000       22.9898           0
     22293 IONS     41       SOD      SOD      SOD      1.000000       22.9898           0
     22294 IONS     42       CLA      CLA      CLA     -1.000000       35.4500           0
     22295 IONS     43       CLA      CLA      CLA     -1.000000       35.4500           0
     22296 IONS     44       CLA      CLA      CLA     -1.000000       35.4500           0
     22297 IONS     45       CLA      CLA      CLA     -1.000000       35.4500           0
     22298 IONS     46       CLA      CLA      CLA     -1.000000       35.4500           0
     22299 IONS     47       CLA      CLA      CLA     -1.000000       35.4500           0
     22300 IONS     48       CLA      CLA      CLA     -1.000000       35.4500           0
     22301 IONS     49       CLA      CLA      CLA     -1.000000       35.4500           0
     22302 IONS     50       CLA      CLA      CLA     -1.000000       35.4500           0
     22303 IONS     51       CLA      CLA      CLA     -1.000000       35.4500           0
     22304 IONS     52       CLA      CLA      CLA     -1.000000       35.4500           0
     22305 IONS     53       CLA      CLA      CLA     -1.000000       35.4500           0
     22306 IONS     54       CLA      CLA      CLA     -1.000000       35.4500           0
     22307 IONS     55       CLA      CLA      CLA     -1.000000       35.4500           0
     22308 IONS     56       CLA      CLA      CLA     -1.000000       35.4500           0
     22309 IONS     57       CLA      CLA      CLA     -1.000000       35.4500           0
     22310 IONS     58       CLA      CLA      CLA     -1.000000       35.4500           0
     22311 TIP3     1        TIP3     OH2      OT      -0.834000       15.9994           0
     22312 TIP3     1        TIP3     H1       HT       0.417000       1.00800           0
     22313 TIP3     1        TIP3     H2       HT       0.417000       1.00800           0
     22314 TIP3     2        TIP3     OH2      OT      -0.834000       15.9994           0
     22315 TIP3     2        TIP3     H1       HT       0.417000       1.00800           0
     22316 TIP3     2        TIP3     H2       HT       0.417000       1.00800           0
     22317 TIP3     3        TIP3     OH2      OT      -0.834000       15.9994           0
     22318 TIP3     3        TIP3     H1       HT       0.417000       1.00800           0
     22319 TIP3     3        TIP3     H2       HT       0.417000       1.00800           0
     22320 TIP3     4        TIP3     OH2      OT      -0.834000       15.9994           0
     22321 TIP3     4        TIP3     H1       HT       0.417000       1.00800           0
     22322 TIP3     4        TIP3     H2       HT       0.417000       1.00800           0
     22323 TIP3     5        TIP3     OH2      OT      -0.834000       15.9994           0
     22324 TIP3     5        TIP3     H1       HT       0.417000       1.00800           0
     22325 TIP3     5        TIP3     H2       HT       0.417000       1.00800           0
     22326 TIP3     6        TIP3     OH2      OT      -0.834000       15.9994           0
     22327 TIP3     6        TIP3     H1       HT       0.417000       1.00800           0
     22328 TIP3     6        TIP3     H2       HT       0.417000       1.00800           0
     22329 TIP3     7        TIP3     OH2      OT      -0.834000       15.9994           0
     22330 TIP3     7        TIP3     H1       HT       0.417000       1.00800           0
     22331 TIP3     7        TIP3     H2       HT       0.417000       1.00800           0
     22332 TIP3     8        TIP3     OH2      OT      -0.834000       15.9994           0
     22333 TIP3     8        TIP3     H1       HT       0.417000       1.00800           0
     22334 TIP3     8        TIP3     H2       HT       0.417000       1.00800           0
     22335 TIP3     9        TIP3     OH2      OT      -0.834000       15.9994           0
     22336 TIP3     9        TIP3     H1       HT       0.417000       1.00800           0
     22337 TIP3     9        TIP3     H2       HT       0.417000       1.00800           0
     22338 TIP3     10       TIP3     OH2      OT      -0.834000       15.9994           0
     22339 TIP3     10       TIP3     H1       HT       0.417000       1.00800           0
     22340 TIP3     10       TIP3     H2       HT       0.417000       1.00800           0
     22341 TIP3     11       TIP3     OH2      OT      -0.834000       15.9994           0
     22342 TIP3     11       TIP3     H1       HT       0.417000       1.00800           0
     22343 TIP3     11       TIP3     H2       HT       0.417000       1.00800           0
     22344 TIP3     12       TIP3     OH2      OT      -0.834000       15.9994           0
     22345 TIP3     12       TIP3     H1       HT       0.417000       1.00800           0
     22346 TIP3     12       TIP3     H2       HT       0.417000       1.00800           0
     22347 TIP3     13       TIP3     OH2      OT      -0.834000       15.9994           0
     22348 TIP3     13       TIP3     H1       HT       0.417000       1.00800           0
     22349 TIP3     13       TIP3     H2       HT       0.417000       1.00800           0
     22350 TIP3     14       TIP3     OH2      OT      -0.834000       15.9994           0
     22351 TIP3     14       TIP3     H1       HT       0.417000       1.00800           0
     22352 TIP3     14       TIP3     H2       HT       0.417000       1.00800           0
     22353 TIP3     15       TIP3     OH2      OT      -0.834000       15.9994           0
     22354 TIP3     15       TIP3     H1       HT       0.417000       1.00800           0
     22355 TIP3     15       TIP3     H2       HT       0.417000       1.00800           0
     22356 TIP3     16       TIP3     OH2      OT      -0.834000       15.9994           0
     22357 TIP3     16       TIP3     H1       HT       0.417000       1.00800           0
     22358 TIP3     16       TIP3     H2       HT       0.417000       1.00800           0
     22359 TIP3     17       TIP3     OH2      OT      -0.834000       15.9994           0
     22360 TIP3     17       TIP3     H1       HT       0.417000       1.00800           0
     22361 TIP3     17       TIP3     H2       HT       0.417000       1.00800           0
     22362 TIP3     18       TIP3     OH2      OT      -0.834000       15.9994           0
     22363 TIP3     18       TIP3     H1       HT       0.417000       1.00800           0
     22364 TIP3     18       TIP3     H2       HT       0.417000       1.00800           0
     22365 TIP3     19       TIP3     OH2      OT      -0.834000       15.9994           0
     22366 TIP3     19       TIP3     H1       HT       0.417000       1.00800           0
     22367 TIP3     19       TIP3     H2       HT       0.417000       1.00800           0
     22368 TIP3     20       TIP3     OH2      OT      -0.834000       15.9994           0
     22369 TIP3     20       TIP3     H1       HT       0.417000       1.00800           0
     22370 TIP3     20       TIP3     H2       HT       0.417000       1.00800           0
     22371 TIP3     21       TIP3     OH2      OT      -0.834000       15.9994           0
     22372 TIP3     21       TIP3     H1       HT       0.417000       1.00800           0
     22373 TIP3     21       TIP3     H2       HT       0.417000       1.00800           0
     22374 TIP3     22       TIP3     OH2      OT      -0.834000       15.9994           0
     22375 TIP3     22       TIP3     H1       HT       0.417000       1.00800           0
     22376 TIP3     22       TIP3     H2       HT       0.417000       1.00800           0
     22377 TIP3     23       TIP3     OH2      OT      -0.834000       15.9994           0
     22378 TIP3     23       TIP3     H1       HT       0.417000       1.00800           0
     22379 TIP3     23       TIP3     H2       HT       0.417000       1.00800           0
     22380 TIP3     24       TIP3     OH2      OT      -0.834000       15.9994           0
     22381 TIP3     24       TIP3     H1       HT       0.417000       1.00800           0
     22382 TIP3     24       TIP3     H2       HT       0.417000       1.00800           0
     22383 TIP3     25       TIP3     OH2      OT      -0.834000       15.9994           0
     22384 TIP3     25       TIP3     H1       HT       0.417000       1.00800           0
     22385 TIP3     25       TIP3     H2       HT       0.417000       1.00800           0
     22386 TIP3     26       TIP3     OH2      OT      -0.834000       15.9994           0
     22387 TIP3     26       TIP3     H1       HT       0.417000       1.00800           0
     22388 TIP3     26       TIP3     H2       HT       0.417000       1.00800           0
     22389 TIP3     27       TIP3     OH2      OT      -0.834000       15.9994           0
     22390 TIP3     27       TIP3     H1       HT       0.417000       1.00800           0
     22391 TIP3     27       TIP3     H2       HT       0.417000       1.00800           0
     22392 TIP3     28       TIP3     OH2      OT      -0.834000       15.9994           0
     22393 TIP3     28       TIP3     H1       HT       0.417000       1.00800           0
     22394 TIP3     28       TIP3     H2       HT       0.417000       1.00800           0
     22395 TIP3     29       TIP3     OH2      OT      -0.834000       15.9994           0
     22396 TIP3     29       TIP3     H1       HT       0.417000       1.00800           0
     22397 TIP3     29       TIP3     H2       HT       0.417000       1.00800           0
     22398 TIP3     30       TIP3     OH2      OT      -0.834000       15.9994           0
     22399 TIP3     30       TIP3     H1       HT       0.417000       1.00800           0
     22400 TIP3     30       TIP3     H2       HT       0.417000       1.00800           0
     22401 TIP3     31       TIP3     OH2      OT      -0.834000       15.9994           0
     22402 TIP3     31       TIP3     H1       HT       0.417000       1.00800           0
     22403 TIP3     31       TIP3     H2       HT       0.417000       1.00800           0
     22404 TIP3     32       TIP3     OH2      OT      -0.834000       15.9994           0
     22405 TIP3     32       TIP3     H1       HT       0.417000       1.00800           0
     22406 TIP3     32       TIP3     H2       HT       0.417000       1.00800           0
     22407 TIP3     33       TIP3     OH2      OT      -0.834000       15.9994           0
     22408 TIP3     33       TIP3     H1       HT       0.417000       1.00800           0
     22409 TIP3     33       TIP3     H2       HT       0.417000       1.00800           0
     22410 TIP3     34       TIP3     OH2      OT      -0.834000       15.9994           0
     22411 TIP3     34       TIP3     H1       HT       0.417000       1.00800           0
     22412 TIP3     34       TIP3     H2       HT       0.417000       1.00800           0
     22413 TIP3     35       TIP3     OH2      OT      -0.834000       15.9994           0
     22414 TIP3     35       TIP3     H1       HT       0.417000       1.00800           0
     22415 TIP3     35       TIP3     H2       HT       0.417000       1.00800           0
     22416 TIP3     36       TIP3     OH2      OT      -0.834000       15.9994           0
     22417 TIP3     36       TIP3     H1       HT       0.417000       1.00800           0
     22418 TIP3     36       TIP3     H2       HT       0.417000       1.00800           0
     22419 TIP3     37       TIP3     OH2      OT      -0.834000       15.9994           0
     22420 TIP3     37       TIP3     H1       HT       0.417000       1.00800           0
     22421 TIP3     37       TIP3     H2       HT       0.417000       1.00800           0
     22422 TIP3     38       TIP3     OH2      OT      -0.834000       15.9994           0
     22423 TIP3     38       TIP3     H1       HT       0.417000       1.00800           0
     22424 TIP3     38       TIP3     H2       HT       0.417000       1.00800           0
     22425 TIP3     39       TIP3     OH2      OT      -0.834000       15.9994           0
     22426 TIP3     39       TIP3     H1       HT       0.417000       1.00800           0
     22427 TIP3     39       TIP3     H2       HT       0.417000       1.00800           0
     22428 TIP3     40       TIP3     OH2      OT      -0.834000       15.9994           0
     22429 TIP3     40       TIP3     H1       HT       0.417000       1.00800           0
     22430 TIP3     40       TIP3     H2       HT       0.417000       1.00800           0
     22431 TIP3     41       TIP3     OH2      OT      -0.834000       15.9994           0
     22432 TIP3     41       TIP3     H1       HT       0.417000       1.00800           0
     22433 TIP3     41       TIP3     H2       HT       0.417000       1.00800           0
     22434 TIP3     42       TIP3     OH2      OT      -0.834000       15.9994           0
     22435 TIP3     42       TIP3     H1       HT       0.417000       1.00800           0
     22436 TIP3     42       TIP3     H2       HT       0.417000       1.00800           0
     22437 TIP3     43       TIP3     OH2      OT      -0.834000       15.9994           0
     22438 TIP3     43       TIP3     H1       HT       0.417000       1.00800           0
     22439 TIP3     43       TIP3     H2       HT       0.417000       1.00800           0
     22440 TIP3     44       TIP3     OH2      OT      -0.834000       15.9994           0
     22441 TIP3     44       TIP3     H1       HT       0.417000       1.00800           0
     22442 TIP3     44       TIP3     H2       HT       0.417000       1.00800           0
     22443 TIP3     45       TIP3     OH2      OT      -0.834000       15.9994           0
     22444 TIP3     45       TIP3     H1       HT       0.417000       1.00800           0
     22445 TIP3     45       TIP3     H2       HT       0.417000       1.00800           0
     22446 TIP3     46       TIP3     OH2      OT      -0.834000       15.9994           0
     22447 TIP3     46       TIP3     H1       HT       0.417000       1.00800           0
     22448 TIP3     46       TIP3     H2       HT       0.417000       1.00800           0
     22449 TIP3     47       TIP3     OH2      OT      -0.834000       15.9994           0
     22450 TIP3     47       TIP3     H1       HT       0.417000       1.00800           0
     22451 TIP3     47       TIP3     H2       HT       0.417000       1.00800           0
     22452 TIP3     48       TIP3     OH2      OT      -0.834000       15.9994           0
     22453 TIP3     48       TIP3     H1       HT       0.417000       1.00800           0
     22454 TIP3     48       TIP3     H2       HT       0.417000       1.00800           0
     22455 TIP3     49       TIP3     OH2      OT      -0.834000       15.9994           0
     22456 TIP3     49       TIP3     H1       HT       0.417000       1.00800           0
     22457 TIP3     49       TIP3     H2       HT       0.417000       1.00800           0
     22458 TIP3     50       TIP3     OH2      OT      -0.834000       15.9994           0
     22459 TIP3     50       TIP3     H1       HT       0.417000       1.00800           0
     22460 TIP3     50       TIP3     H2       HT       0.417000       1.00800           0
     22461 TIP3     51       TIP3     OH2      OT      -0.834000       15.9994           0
     22462 TIP3     51       TIP3     H1       HT       0.417000       1.00800           0
     22463 TIP3     51       TIP3     H2       HT       0.417000       1.00800           0
     22464 TIP3     52       TIP3     OH2      OT      -0.834000       15.9994           0
     22465 TIP3     52       TIP3     H1       HT       0.417000       1.00800           0
     22466 TIP3     52       TIP3     H2       HT       0.417000       1.00800           0
     22467 TIP3     53       TIP3     OH2      OT      -0.834000       15.9994           0
     22468 TIP3     53       TIP3     H1       HT       0.417000       1.00800           0
     22469 TIP3     53       TIP3     H2       HT       0.417000       1.00800           0
     22470 TIP3     54       TIP3     OH2      OT      -0.834000       15.9994           0
     22471 TIP3     54       TIP3     H1       HT       0.417000       1.00800           0
     22472 TIP3     54       TIP3     H2       HT       0.417000       1.00800           0
     22473 TIP3     55       TIP3     OH2      OT      -0.834000       15.9994           0
     22474 TIP3     55       TIP3     H1       HT       0.417000       1.00800           0
     22475 TIP3     55       TIP3     H2       HT       0.417000       1.00800           0
     22476 TIP3     56       TIP3     OH2      OT      -0.834000       15.9994           0
     22477 TIP3     56       TIP3     H1       HT       0.417000       1.00800           0
     22478 TIP3     56       TIP3     H2       HT       0.417000       1.00800           0
     22479 TIP3     57       TIP3     OH2      OT      -0.834000       15.9994           0
     22480 TIP3     57       TIP3     H1       HT       0.417000       1.00800           0
     22481 TIP3     57       TIP3     H2       HT       0.417000       1.00800           0
     22482 TIP3     58       TIP3     OH2      OT      -0.834000       15.9994           0
     22483 TIP3     58       TIP3     H1       HT       0.417000       1.00800           0
     22484 TIP3     58       TIP3     H2       HT       0.417000       1.00800           0
     22485 TIP3     59       TIP3     OH2      OT      -0.834000       15.9994           0
     22486 TIP3     59       TIP3     H1       HT       0.417000       1.00800           0
     22487 TIP3     59       TIP3     H2       HT       0.417000       1.00800           0
     22488 TIP3     60       TIP3     OH2      OT      -0.834000       15.9994           0
     22489 TIP3     60       TIP3     H1       HT       0.417000       1.00800           0
     22490 TIP3     60       TIP3     H2       HT       0.417000       1.00800           0
     22491 TIP3     61       TIP3     OH2      OT      -0.834000       15.9994           0
     22492 TIP3     61       TIP3     H1       HT       0.417000       1.00800           0
     22493 TIP3     61       TIP3     H2       HT       0.417000       1.00800           0
     22494 TIP3     62       TIP3     OH2      OT      -0.834000       15.9994           0
     22495 TIP3     62       TIP3     H1       HT       0.417000       1.00800           0
     22496 TIP3     62       TIP3     H2       HT       0.417000       1.00800           0
     22497 TIP3     63       TIP3     OH2      OT      -0.834000       15.9994           0
     22498 TIP3     63       TIP3     H1       HT       0.417000       1.00800           0
     22499 TIP3     63       TIP3     H2       HT       0.417000       1.00800           0
     22500 TIP3     64       TIP3     OH2      OT      -0.834000       15.9994           0
     22501 TIP3     64       TIP3     H1       HT       0.417000       1.00800           0
     22502 TIP3     64       TIP3     H2       HT       0.417000       1.00800           0
     22503 TIP3     65       TIP3     OH2      OT      -0.834000       15.9994           0
     22504 TIP3     65       TIP3     H1       HT       0.417000       1.00800           0
     22505 TIP3     65       TIP3     H2       HT       0.417000       1.00800           0
     22506 TIP3     66       TIP3     OH2      OT      -0.834000       15.9994           0
     22507 TIP3     66       TIP3     H1       HT       0.417000       1.00800           0
     22508 TIP3     66       TIP3     H2       HT       0.417000       1.00800           0
     22509 TIP3     67       TIP3     OH2      OT      -0.834000       15.9994           0
     22510 TIP3     67       TIP3     H1       HT       0.417000       1.00800           0
     22511 TIP3     67       TIP3     H2       HT       0.417000       1.00800           0
     22512 TIP3     68       TIP3     OH2      OT      -0.834000       15.9994           0
     22513 TIP3     68       TIP3     H1       HT       0.417000       1.00800           0
     22514 TIP3     68       TIP3     H2       HT       0.417000       1.00800           0
     22515 TIP3     69       TIP3     OH2      OT      -0.834000       15.9994           0
     22516 TIP3     69       TIP3     H1       HT       0.417000       1.00800           0
     22517 TIP3     69       TIP3     H2       HT       0.417000       1.00800           0
     22518 TIP3     70       TIP3     OH2      OT      -0.834000       15.9994           0
     22519 TIP3     70       TIP3     H1       HT       0.417000       1.00800           0
     22520 TIP3     70       TIP3     H2       HT       0.417000       1.00800           0
     22521 TIP3     71       TIP3     OH2      OT      -0.834000       15.9994           0
     22522 TIP3     71       TIP3     H1       HT       0.417000       1.00800           0
     22523 TIP3     71       TIP3     H2       HT       0.417000       1.00800           0
     22524 TIP3     72       TIP3     OH2      OT      -0.834000       15.9994           0
     22525 TIP3     72       TIP3     H1       HT       0.417000       1.00800           0
     22526 TIP3     72       TIP3     H2       HT       0.417000       1.00800           0
     22527 TIP3     73       TIP3     OH2      OT      -0.834000       15.9994           0
     22528 TIP3     73       TIP3     H1       HT       0.417000       1.00800           0
     22529 TIP3     73       TIP3     H2       HT       0.417000       1.00800           0
     22530 TIP3     74       TIP3     OH2      OT      -0.834000       15.9994           0
     22531 TIP3     74       TIP3     H1       HT       0.417000       1.00800           0
     22532 TIP3     74       TIP3     H2       HT       0.417000       1.00800           0
     22533 TIP3     75       TIP3     OH2      OT      -0.834000       15.9994           0
     22534 TIP3     75       TIP3     H1       HT       0.417000       1.00800           0
     22535 TIP3     75       TIP3     H2       HT       0.417000       1.00800           0
     22536 TIP3     76       TIP3     OH2      OT      -0.834000       15.9994           0
     22537 TIP3     76       TIP3     H1       HT       0.417000       1.00800           0
     22538 TIP3     76       TIP3     H2       HT       0.417000       1.00800           0
     22539 TIP3     77       TIP3     OH2      OT      -0.834000       15.9994           0
     22540 TIP3     77       TIP3     H1       HT       0.417000       1.00800           0
     22541 TIP3     77       TIP3     H2       HT       0.417000       1.00800           0
     22542 TIP3     78       TIP3     OH2      OT      -0.834000       15.9994           0
     22543 TIP3     78       TIP3     H1       HT       0.417000       1.00800           0
     22544 TIP3     78       TIP3     H2       HT       0.417000       1.00800           0
     22545 TIP3     79       TIP3     OH2      OT      -0.834000       15.9994           0
     22546 TIP3     79       TIP3     H1       HT       0.417000       1.00800           0
     22547 TIP3     79       TIP3     H2       HT       0.417000       1.00800           0
     22548 TIP3     80       TIP3     OH2      OT      -0.834000       15.9994           0
     22549 TIP3     80       TIP3     H1       HT       0.417000       1.00800           0
     22550 TIP3     80       TIP3     H2       HT       0.417000       1.00800           0
     22551 TIP3     81       TIP3     OH2      OT      -0.834000       15.9994           0
     22552 TIP3     81       TIP3     H1       HT       0.417000       1.00800           0
     22553 TIP3     81       TIP3     H2       HT       0.417000       1.00800           0
     22554 TIP3     82       TIP3     OH2      OT      -0.834000       15.9994           0
     22555 TIP3     82       TIP3     H1       HT       0.417000       1.00800           0
     22556 TIP3     82       TIP3     H2       HT       0.417000       1.00800           0
     22557 TIP3     83       TIP3     OH2      OT      -0.834000       15.9994           0
     22558 TIP3     83       TIP3     H1       HT       0.417000       1.00800           0
     22559 TIP3     83       TIP3     H2       HT       0.417000       1.00800           0
     22560 TIP3     84       TIP3     OH2      OT      -0.834000       15.9994           0
     22561 TIP3     84       TIP3     H1       HT       0.417000       1.00800           0
     22562 TIP3     84       TIP3     H2       HT       0.417000       1.00800           0
     22563 TIP3     85       TIP3     OH2      OT      -0.834000       15.9994           0
     22564 TIP3     85       TIP3     H1       HT       0.417000       1.00800           0
     22565 TIP3     85       TIP3     H2       HT       0.417000       1.00800           0
     22566 TIP3     86       TIP3     OH2      OT      -0.834000       15.9994           0
     22567 TIP3     86       TIP3     H1       HT       0.417000       1.00800           0
     22568 TIP3     86       TIP3     H2       HT       0.417000       1.00800           0
     22569 TIP3     87       TIP3     OH2      OT      -0.834000       15.9994           0
     22570 TIP3     87       TIP3     H1       HT       0.417000       1.00800           0
     22571 TIP3     87       TIP3     H2       HT       0.417000       1.00800           0
     22572 TIP3     88       TIP3     OH2      OT      -0.834000       15.9994           0
     22573 TIP3     88       TIP3     H1       HT       0.417000       1.00800           0
     22574 TIP3     88       TIP3     H2       HT       0.417000       1.00800           0
     22575 TIP3     89       TIP3     OH2      OT      -0.834000       15.9994           0
     22576 TIP3     89       TIP3     H1       HT       0.417000       1.00800           0
     22577 TIP3     89       TIP3     H2       HT       0.417000       1.00800           0
     22578 TIP3     90       TIP3     OH2      OT      -0.834000       15.9994           0
     22579 TIP3     90       TIP3     H1       HT       0.417000       1.00800           0
     22580 TIP3     90       TIP3     H2       HT       0.417000       1.00800           0
     22581 TIP3     91       TIP3     OH2      OT      -0.834000       15.9994           0
     22582 TIP3     91       TIP3     H1       HT       0.417000       1.00800           0
     22583 TIP3     91       TIP3     H2       HT       0.417000       1.00800           0
     22584 TIP3     92       TIP3     OH2      OT      -0.834000       15.9994           0
     22585 TIP3     92       TIP3     H1       HT       0.417000       1.00800           0
     22586 TIP3     92       TIP3     H2       HT       0.417000       1.00800           0
     22587 TIP3     93       TIP3     OH2      OT      -0.834000       15.9994           0
     22588 TIP3     93       TIP3     H1       HT       0.417000       1.00800           0
     22589 TIP3     93       TIP3     H2       HT       0.417000       1.00800           0
     22590 TIP3     94       TIP3     OH2      OT      -0.834000       15.9994           0
     22591 TIP3     94       TIP3     H1       HT       0.417000       1.00800           0
     22592 TIP3     94       TIP3     H2       HT       0.417000       1.00800           0
     22593 TIP3     95       TIP3     OH2      OT      -0.834000       15.9994           0
     22594 TIP3     95       TIP3     H1       HT       0.417000       1.00800           0
     22595 TIP3     95       TIP3     H2       HT       0.417000       1.00800           0
     22596 TIP3     96       TIP3     OH2      OT      -0.834000       15.9994           0
     22597 TIP3     96       TIP3     H1       HT       0.417000       1.00800           0
     22598 TIP3     96       TIP3     H2       HT       0.417000       1.00800           0
     22599 TIP3     97       TIP3     OH2      OT      -0.834000       15.9994           0
     22600 TIP3     97       TIP3     H1       HT       0.417000       1.00800           0
     22601 TIP3     97       TIP3     H2       HT       0.417000       1.00800           0
     22602 TIP3     98       TIP3     OH2      OT      -0.834000       15.9994           0
     22603 TIP3     98       TIP3     H1       HT       0.417000       1.00800           0
     22604 TIP3     98       TIP3     H2       HT       0.417000       1.00800           0
     22605 TIP3     99       TIP3     OH2      OT      -0.834000       15.9994           0
     22606 TIP3     99       TIP3     H1       HT       0.417000       1.00800           0
     22607 TIP3     99       TIP3     H2       HT       0.417000       1.00800           0
     22608 TIP3     100      TIP3     OH2      OT      -0.834000       15.9994           0
     22609 TIP3     100      TIP3     H1       HT       0.417000       1.00800           0
     22610 TIP3     100      TIP3     H2       HT       0.417000       1.00800           0
     22611 TIP3     101      TIP3     OH2      OT      -0.834000       15.9994           0
     22612 TIP3     101      TIP3     H1       HT       0.417000       1.00800           0
     22613 TIP3     101      TIP3     H2       HT       0.417000       1.00800           0
     22614 TIP3     102      TIP3     OH2      OT      -0.834000       15.9994           0
     22615 TIP3     102      TIP3     H1       HT       0.417000       1.00800           0
     22616 TIP3     102      TIP3     H2       HT       0.417000       1.00800           0
     22617 TIP3     103      TIP3     OH2      OT      -0.834000       15.9994           0
     22618 TIP3     103      TIP3     H1       HT       0.417000       1.00800           0
     22619 TIP3     103      TIP3     H2       HT       0.417000       1.00800           0
     22620 TIP3     104      TIP3     OH2      OT      -0.834000       15.9994           0
     22621 TIP3     104      TIP3     H1       HT       0.417000       1.00800           0
     22622 TIP3     104      TIP3     H2       HT       0.417000       1.00800           0
     22623 TIP3     105      TIP3     OH2      OT      -0.834000       15.9994           0
     22624 TIP3     105      TIP3     H1       HT       0.417000       1.00800           0
     22625 TIP3     105      TIP3     H2       HT       0.417000       1.00800           0
     22626 TIP3     106      TIP3     OH2      OT      -0.834000       15.9994           0
     22627 TIP3     106      TIP3     H1       HT       0.417000       1.00800           0
     22628 TIP3     106      TIP3     H2       HT       0.417000       1.00800           0
     22629 TIP3     107      TIP3     OH2      OT      -0.834000       15.9994           0
     22630 TIP3     107      TIP3     H1       HT       0.417000       1.00800           0
     22631 TIP3     107      TIP3     H2       HT       0.417000       1.00800           0
     22632 TIP3     108      TIP3     OH2      OT      -0.834000       15.9994           0
     22633 TIP3     108      TIP3     H1       HT       0.417000       1.00800           0
     22634 TIP3     108      TIP3     H2       HT       0.417000       1.00800           0
     22635 TIP3     109      TIP3     OH2      OT      -0.834000       15.9994           0
     22636 TIP3     109      TIP3     H1       HT       0.417000       1.00800           0
     22637 TIP3     109      TIP3     H2       HT       0.417000       1.00800           0
     22638 TIP3     110      TIP3     OH2      OT      -0.834000       15.9994           0
     22639 TIP3     110      TIP3     H1       HT       0.417000       1.00800           0
     22640 TIP3     110      TIP3     H2       HT       0.417000       1.00800           0
     22641 TIP3     111      TIP3     OH2      OT      -0.834000       15.9994           0
     22642 TIP3     111      TIP3     H1       HT       0.417000       1.00800           0
     22643 TIP3     111      TIP3     H2       HT       0.417000       1.00800           0
     22644 TIP3     112      TIP3     OH2      OT      -0.834000       15.9994           0
     22645 TIP3     112      TIP3     H1       HT       0.417000       1.00800           0
     22646 TIP3     112      TIP3     H2       HT       0.417000       1.00800           0
     22647 TIP3     113      TIP3     OH2      OT      -0.834000       15.9994           0
     22648 TIP3     113      TIP3     H1       HT       0.417000       1.00800           0
     22649 TIP3     113      TIP3     H2       HT       0.417000       1.00800           0
     22650 TIP3     114      TIP3     OH2      OT      -0.834000       15.9994           0
     22651 TIP3     114      TIP3     H1       HT       0.417000       1.00800           0
     22652 TIP3     114      TIP3     H2       HT       0.417000       1.00800           0
     22653 TIP3     115      TIP3     OH2      OT      -0.834000       15.9994           0
     22654 TIP3     115      TIP3     H1       HT       0.417000       1.00800           0
     22655 TIP3     115      TIP3     H2       HT       0.417000       1.00800           0
     22656 TIP3     116      TIP3     OH2      OT      -0.834000       15.9994           0
     22657 TIP3     116      TIP3     H1       HT       0.417000       1.00800           0
     22658 TIP3     116      TIP3     H2       HT       0.417000       1.00800           0
     22659 TIP3     117      TIP3     OH2      OT      -0.834000       15.9994           0
     22660 TIP3     117      TIP3     H1       HT       0.417000       1.00800           0
     22661 TIP3     117      TIP3     H2       HT       0.417000       1.00800           0
     22662 TIP3     118      TIP3     OH2      OT      -0.834000       15.9994           0
     22663 TIP3     118      TIP3     H1       HT       0.417000       1.00800           0
     22664 TIP3     118      TIP3     H2       HT       0.417000       1.00800           0
     22665 TIP3     119      TIP3     OH2      OT      -0.834000       15.9994           0
     22666 TIP3     119      TIP3     H1       HT       0.417000       1.00800           0
     22667 TIP3     119      TIP3     H2       HT       0.417000       1.00800           0
     22668 TIP3     120      TIP3     OH2      OT      -0.834000       15.9994           0
     22669 TIP3     120      TIP3     H1       HT       0.417000       1.00800           0
     22670 TIP3     120      TIP3     H2       HT       0.417000       1.00800           0
     22671 TIP3     121      TIP3     OH2      OT      -0.834000       15.9994           0
     22672 TIP3     121      TIP3     H1       HT       0.417000       1.00800           0
     22673 TIP3     121      TIP3     H2       HT       0.417000       1.00800           0
     22674 TIP3     122      TIP3     OH2      OT      -0.834000       15.9994           0
     22675 TIP3     122      TIP3     H1       HT       0.417000       1.00800           0
     22676 TIP3     122      TIP3     H2       HT       0.417000       1.00800           0
     22677 TIP3     123      TIP3     OH2      OT      -0.834000       15.9994           0
     22678 TIP3     123      TIP3     H1       HT       0.417000       1.00800           0
     22679 TIP3     123      TIP3     H2       HT       0.417000       1.00800           0
     22680 TIP3     124      TIP3     OH2      OT      -0.834000       15.9994           0
     22681 TIP3     124      TIP3     H1       HT       0.417000       1.00800           0
     22682 TIP3     124      TIP3     H2       HT       0.417000       1.00800           0
     22683 TIP3     125      TIP3     OH2      OT      -0.834000       15.9994           0
     22684 TIP3     125      TIP3     H1       HT       0.417000       1.00800           0
     22685 TIP3     125      TIP3     H2       HT       0.417000       1.00800           0
     22686 TIP3     126      TIP3     OH2      OT      -0.834000       15.9994           0
     22687 TIP3     126      TIP3     H1       HT       0.417000       1.00800           0
     22688 TIP3     126      TIP3     H2       HT       0.417000       1.00800           0
     22689 TIP3     127      TIP3     OH2      OT      -0.834000       15.9994           0
     22690 TIP3     127      TIP3     H1       HT       0.417000       1.00800           0
     22691 TIP3     127      TIP3     H2       HT       0.417000       1.00800           0
     22692 TIP3     128      TIP3     OH2      OT      -0.834000       15.9994           0
     22693 TIP3     128      TIP3     H1       HT       0.417000       1.00800           0
     22694 TIP3     128      TIP3     H2       HT       0.417000       1.00800           0
     22695 TIP3     129      TIP3     OH2      OT      -0.834000       15.9994           0
     22696 TIP3     129      TIP3     H1       HT       0.417000       1.00800           0
     22697 TIP3     129      TIP3     H2       HT       0.417000       1.00800           0
     22698 TIP3     130      TIP3     OH2      OT      -0.834000       15.9994           0
     22699 TIP3     130      TIP3     H1       HT       0.417000       1.00800           0
     22700 TIP3     130      TIP3     H2       HT       0.417000       1.00800           0
     22701 TIP3     131      TIP3     OH2      OT      -0.834000       15.9994           0
     22702 TIP3     131      TIP3     H1       HT       0.417000       1.00800           0
     22703 TIP3     131      TIP3     H2       HT       0.417000       1.00800           0
     22704 TIP3     132      TIP3     OH2      OT      -0.834000       15.9994           0
     22705 TIP3     132      TIP3     H1       HT       0.417000       1.00800           0
     22706 TIP3     132      TIP3     H2       HT       0.417000       1.00800           0
     22707 TIP3     133      TIP3     OH2      OT      -0.834000       15.9994           0
     22708 TIP3     133      TIP3     H1       HT       0.417000       1.00800           0
     22709 TIP3     133      TIP3     H2       HT       0.417000       1.00800           0
     22710 TIP3     134      TIP3     OH2      OT      -0.834000       15.9994           0
     22711 TIP3     134      TIP3     H1       HT       0.417000       1.00800           0
     22712 TIP3     134      TIP3     H2       HT       0.417000       1.00800           0
     22713 TIP3     135      TIP3     OH2      OT      -0.834000       15.9994           0
     22714 TIP3     135      TIP3     H1       HT       0.417000       1.00800           0
     22715 TIP3     135      TIP3     H2       HT       0.417000       1.00800           0
     22716 TIP3     136      TIP3     OH2      OT      -0.834000       15.9994           0
     22717 TIP3     136      TIP3     H1       HT       0.417000       1.00800           0
     22718 TIP3     136      TIP3     H2       HT       0.417000       1.00800           0
     22719 TIP3     137      TIP3     OH2      OT      -0.834000       15.9994           0
     22720 TIP3     137      TIP3     H1       HT       0.417000       1.00800           0
     22721 TIP3     137      TIP3     H2       HT       0.417000       1.00800           0
     22722 TIP3     138      TIP3     OH2      OT      -0.834000       15.9994           0
     22723 TIP3     138      TIP3     H1       HT       0.417000       1.00800           0
     22724 TIP3     138      TIP3     H2       HT       0.417000       1.00800           0
     22725 TIP3     139      TIP3     OH2      OT      -0.834000       15.9994           0
     22726 TIP3     139      TIP3     H1       HT       0.417000       1.00800           0
     22727 TIP3     139      TIP3     H2       HT       0.417000       1.00800           0
     22728 TIP3     140      TIP3     OH2      OT      -0.834000       15.9994           0
     22729 TIP3     140      TIP3     H1       HT       0.417000       1.00800           0
     22730 TIP3     140      TIP3     H2       HT       0.417000       1.00800           0
     22731 TIP3     141      TIP3     OH2      OT      -0.834000       15.9994           0
     22732 TIP3     141      TIP3     H1       HT       0.417000       1.00800           0
     22733 TIP3     141      TIP3     H2       HT       0.417000       1.00800           0
     22734 TIP3     142      TIP3     OH2      OT      -0.834000       15.9994           0
     22735 TIP3     142      TIP3     H1       HT       0.417000       1.00800           0
     22736 TIP3     142      TIP3     H2       HT       0.417000       1.00800           0
     22737 TIP3     143      TIP3     OH2      OT      -0.834000       15.9994           0
     22738 TIP3     143      TIP3     H1       HT       0.417000       1.00800           0
     22739 TIP3     143      TIP3     H2       HT       0.417000       1.00800           0
     22740 TIP3     144      TIP3     OH2      OT      -0.834000       15.9994           0
     22741 TIP3     144      TIP3     H1       HT       0.417000       1.00800           0
     22742 TIP3     144      TIP3     H2       HT       0.417000       1.00800           0
     22743 TIP3     145      TIP3     OH2      OT      -0.834000       15.9994           0
     22744 TIP3     145      TIP3     H1       HT       0.417000       1.00800           0
     22745 TIP3     145      TIP3     H2       HT       0.417000       1.00800           0
     22746 TIP3     146      TIP3     OH2      OT      -0.834000       15.9994           0
     22747 TIP3     146      TIP3     H1       HT       0.417000       1.00800           0
     22748 TIP3     146      TIP3     H2       HT       0.417000       1.00800           0
     22749 TIP3     147      TIP3     OH2      OT      -0.834000       15.9994           0
     22750 TIP3     147      TIP3     H1       HT       0.417000       1.00800           0
     22751 TIP3     147      TIP3     H2       HT       0.417000       1.00800           0
     22752 TIP3     148      TIP3     OH2      OT      -0.834000       15.9994           0
     22753 TIP3     148      TIP3     H1       HT       0.417000       1.00800           0
     22754 TIP3     148      TIP3     H2       HT       0.417000       1.00800           0
     22755 TIP3     149      TIP3     OH2      OT      -0.834000       15.9994           0
     22756 TIP3     149      TIP3     H1       HT       0.417000       1.00800           0
     22757 TIP3     149      TIP3     H2       HT       0.417000       1.00800           0
     22758 TIP3     150      TIP3     OH2      OT      -0.834000       15.9994           0
     22759 TIP3     150      TIP3     H1       HT       0.417000       1.00800           0
     22760 TIP3     150      TIP3     H2       HT       0.417000       1.00800           0
     22761 TIP3     151      TIP3     OH2      OT      -0.834000       15.9994           0
     22762 TIP3     151      TIP3     H1       HT       0.417000       1.00800           0
     22763 TIP3     151      TIP3     H2       HT       0.417000       1.00800           0
     22764 TIP3     152      TIP3     OH2      OT      -0.834000       15.9994           0
     22765 TIP3     152      TIP3     H1       HT       0.417000       1.00800           0
     22766 TIP3     152      TIP3     H2       HT       0.417000       1.00800           0
     22767 TIP3     153      TIP3     OH2      OT      -0.834000       15.9994           0
     22768 TIP3     153      TIP3     H1       HT       0.417000       1.00800           0
     22769 TIP3     153      TIP3     H2       HT       0.417000       1.00800           0
     22770 TIP3     154      TIP3     OH2      OT      -0.834000       15.9994           0
     22771 TIP3     154      TIP3     H1       HT       0.417000       1.00800           0
     22772 TIP3     154      TIP3     H2       HT       0.417000       1.00800           0
     22773 TIP3     155      TIP3     OH2      OT      -0.834000       15.9994           0
     22774 TIP3     155      TIP3     H1       HT       0.417000       1.00800           0
     22775 TIP3     155      TIP3     H2       HT       0.417000       1.00800           0
     22776 TIP3     156      TIP3     OH2      OT      -0.834000       15.9994           0
     22777 TIP3     156      TIP3     H1       HT       0.417000       1.00800           0
     22778 TIP3     156      TIP3     H2       HT       0.417000       1.00800           0
     22779 TIP3     157      TIP3     OH2      OT      -0.834000       15.9994           0
     22780 TIP3     157      TIP3     H1       HT       0.417000       1.00800           0
     22781 TIP3     157      TIP3     H2       HT       0.417000       1.00800           0
     22782 TIP3     158      TIP3     OH2      OT      -0.834000       15.9994           0
     22783 TIP3     158      TIP3     H1       HT       0.417000       1.00800           0
     22784 TIP3     158      TIP3     H2       HT       0.417000       1.00800           0
     22785 TIP3     159      TIP3     OH2      OT      -0.834000       15.9994           0
     22786 TIP3     159      TIP3     H1       HT       0.417000       1.00800           0
     22787 TIP3     159      TIP3     H2       HT       0.417000       1.00800           0
     22788 TIP3     160      TIP3     OH2      OT      -0.834000       15.9994           0
     22789 TIP3     160      TIP3     H1       HT       0.417000       1.00800           0
     22790 TIP3     160      TIP3     H2       HT       0.417000       1.00800           0
     22791 TIP3     161      TIP3     OH2      OT      -0.834000       15.9994           0
     22792 TIP3     161      TIP3     H1       HT       0.417000       1.00800           0
     22793 TIP3     161      TIP3     H2       HT       0.417000       1.00800           0
     22794 TIP3     162      TIP3     OH2      OT      -0.834000       15.9994           0
     22795 TIP3     162      TIP3     H1       HT       0.417000       1.00800           0
     22796 TIP3     162      TIP3     H2       HT       0.417000       1.00800           0
     22797 TIP3     163      TIP3     OH2      OT      -0.834000       15.9994           0
     22798 TIP3     163      TIP3     H1       HT       0.417000       1.00800           0
     22799 TIP3     163      TIP3     H2       HT       0.417000       1.00800           0
     22800 TIP3     164      TIP3     OH2      OT      -0.834000       15.9994           0
     22801 TIP3     164      TIP3     H1       HT       0.417000       1.00800           0
     22802 TIP3     164      TIP3     H2       HT       0.417000       1.00800           0
     22803 TIP3     165      TIP3     OH2      OT      -0.834000       15.9994           0
     22804 TIP3     165      TIP3     H1       HT       0.417000       1.00800           0
     22805 TIP3     165      TIP3     H2       HT       0.417000       1.00800           0
     22806 TIP3     166      TIP3     OH2      OT      -0.834000       15.9994           0
     22807 TIP3     166      TIP3     H1       HT       0.417000       1.00800           0
     22808 TIP3     166      TIP3     H2       HT       0.417000       1.00800           0
     22809 TIP3     167      TIP3     OH2      OT      -0.834000       15.9994           0
     22810 TIP3     167      TIP3     H1       HT       0.417000       1.00800           0
     22811 TIP3     167      TIP3     H2       HT       0.417000       1.00800           0
     22812 TIP3     168      TIP3     OH2      OT      -0.834000       15.9994           0
     22813 TIP3     168      TIP3     H1       HT       0.417000       1.00800           0
     22814 TIP3     168      TIP3     H2       HT       0.417000       1.00800           0
     22815 TIP3     169      TIP3     OH2      OT      -0.834000       15.9994           0
     22816 TIP3     169      TIP3     H1       HT       0.417000       1.00800           0
     22817 TIP3     169      TIP3     H2       HT       0.417000       1.00800           0
     22818 TIP3     170      TIP3     OH2      OT      -0.834000       15.9994           0
     22819 TIP3     170      TIP3     H1       HT       0.417000       1.00800           0
     22820 TIP3     170      TIP3     H2       HT       0.417000       1.00800           0
     22821 TIP3     171      TIP3     OH2      OT      -0.834000       15.9994           0
     22822 TIP3     171      TIP3     H1       HT       0.417000       1.00800           0
     22823 TIP3     171      TIP3     H2       HT       0.417000       1.00800           0
     22824 TIP3     172      TIP3     OH2      OT      -0.834000       15.9994           0
     22825 TIP3     172      TIP3     H1       HT       0.417000       1.00800           0
     22826 TIP3     172      TIP3     H2       HT       0.417000       1.00800           0
     22827 TIP3     173      TIP3     OH2      OT      -0.834000       15.9994           0
     22828 TIP3     173      TIP3     H1       HT       0.417000       1.00800           0
     22829 TIP3     173      TIP3     H2       HT       0.417000       1.00800           0
     22830 TIP3     174      TIP3     OH2      OT      -0.834000       15.9994           0
     22831 TIP3     174      TIP3     H1       HT       0.417000       1.00800           0
     22832 TIP3     174      TIP3     H2       HT       0.417000       1.00800           0
     22833 TIP3     175      TIP3     OH2      OT      -0.834000       15.9994           0
     22834 TIP3     175      TIP3     H1       HT       0.417000       1.00800           0
     22835 TIP3     175      TIP3     H2       HT       0.417000       1.00800           0
     22836 TIP3     176      TIP3     OH2      OT      -0.834000       15.9994           0
     22837 TIP3     176      TIP3     H1       HT       0.417000       1.00800           0
     22838 TIP3     176      TIP3     H2       HT       0.417000       1.00800           0
     22839 TIP3     177      TIP3     OH2      OT      -0.834000       15.9994           0
     22840 TIP3     177      TIP3     H1       HT       0.417000       1.00800           0
     22841 TIP3     177      TIP3     H2       HT       0.417000       1.00800           0
     22842 TIP3     178      TIP3     OH2      OT      -0.834000       15.9994           0
     22843 TIP3     178      TIP3     H1       HT       0.417000       1.00800           0
     22844 TIP3     178      TIP3     H2       HT       0.417000       1.00800           0
     22845 TIP3     179      TIP3     OH2      OT      -0.834000       15.9994           0
     22846 TIP3     179      TIP3     H1       HT       0.417000       1.00800           0
     22847 TIP3     179      TIP3     H2       HT       0.417000       1.00800           0
     22848 TIP3     180      TIP3     OH2      OT      -0.834000       15.9994           0
     22849 TIP3     180      TIP3     H1       HT       0.417000       1.00800           0
     22850 TIP3     180      TIP3     H2       HT       0.417000       1.00800           0
     22851 TIP3     181      TIP3     OH2      OT      -0.834000       15.9994           0
     22852 TIP3     181      TIP3     H1       HT       0.417000       1.00800           0
     22853 TIP3     181      TIP3     H2       HT       0.417000       1.00800           0
     22854 TIP3     182      TIP3     OH2      OT      -0.834000       15.9994           0
     22855 TIP3     182      TIP3     H1       HT       0.417000       1.00800           0
     22856 TIP3     182      TIP3     H2       HT       0.417000       1.00800           0
     22857 TIP3     183      TIP3     OH2      OT      -0.834000       15.9994           0
     22858 TIP3     183      TIP3     H1       HT       0.417000       1.00800           0
     22859 TIP3     183      TIP3     H2       HT       0.417000       1.00800           0
     22860 TIP3     184      TIP3     OH2      OT      -0.834000       15.9994           0
     22861 TIP3     184      TIP3     H1       HT       0.417000       1.00800           0
     22862 TIP3     184      TIP3     H2       HT       0.417000       1.00800           0
     22863 TIP3     185      TIP3     OH2      OT      -0.834000       15.9994           0
     22864 TIP3     185      TIP3     H1       HT       0.417000       1.00800           0
     22865 TIP3     185      TIP3     H2       HT       0.417000       1.00800           0
     22866 TIP3     186      TIP3     OH2      OT      -0.834000       15.9994           0
     22867 TIP3     186      TIP3     H1       HT       0.417000       1.00800           0
     22868 TIP3     186      TIP3     H2       HT       0.417000       1.00800           0
     22869 TIP3     187      TIP3     OH2      OT      -0.834000       15.9994           0
     22870 TIP3     187      TIP3     H1       HT       0.417000       1.00800           0
     22871 TIP3     187      TIP3     H2       HT       0.417000       1.00800           0
     22872 TIP3     188      TIP3     OH2      OT      -0.834000       15.9994           0
     22873 TIP3     188      TIP3     H1       HT       0.417000       1.00800           0
     22874 TIP3     188      TIP3     H2       HT       0.417000       1.00800           0
     22875 TIP3     189      TIP3     OH2      OT      -0.834000       15.9994           0
     22876 TIP3     189      TIP3     H1       HT       0.417000       1.00800           0
     22877 TIP3     189      TIP3     H2       HT       0.417000       1.00800           0
     22878 TIP3     190      TIP3     OH2      OT      -0.834000       15.9994           0
     22879 TIP3     190      TIP3     H1       HT       0.417000       1.00800           0
     22880 TIP3     190      TIP3     H2       HT       0.417000       1.00800           0
     22881 TIP3     191      TIP3     OH2      OT      -0.834000       15.9994           0
     22882 TIP3     191      TIP3     H1       HT       0.417000       1.00800           0
     22883 TIP3     191      TIP3     H2       HT       0.417000       1.00800           0
     22884 TIP3     192      TIP3     OH2      OT      -0.834000       15.9994           0
     22885 TIP3     192      TIP3     H1       HT       0.417000       1.00800           0
     22886 TIP3     192      TIP3     H2       HT       0.417000       1.00800           0
     22887 TIP3     193      TIP3     OH2      OT      -0.834000       15.9994           0
     22888 TIP3     193      TIP3     H1       HT       0.417000       1.00800           0
     22889 TIP3     193      TIP3     H2       HT       0.417000       1.00800           0
     22890 TIP3     194      TIP3     OH2      OT      -0.834000       15.9994           0
     22891 TIP3     194      TIP3     H1       HT       0.417000       1.00800           0
     22892 TIP3     194      TIP3     H2       HT       0.417000       1.00800           0
     22893 TIP3     195      TIP3     OH2      OT      -0.834000       15.9994           0
     22894 TIP3     195      TIP3     H1       HT       0.417000       1.00800           0
     22895 TIP3     195      TIP3     H2       HT       0.417000       1.00800           0
     22896 TIP3     196      TIP3     OH2      OT      -0.834000       15.9994           0
     22897 TIP3     196      TIP3     H1       HT       0.417000       1.00800           0
     22898 TIP3     196      TIP3     H2       HT       0.417000       1.00800           0
     22899 TIP3     197      TIP3     OH2      OT      -0.834000       15.9994           0
     22900 TIP3     197      TIP3     H1       HT       0.417000       1.00800           0
     22901 TIP3     197      TIP3     H2       HT       0.417000       1.00800           0
     22902 TIP3     198      TIP3     OH2      OT      -0.834000       15.9994           0
     22903 TIP3     198      TIP3     H1       HT       0.417000       1.00800           0
     22904 TIP3     198      TIP3     H2       HT       0.417000       1.00800           0
     22905 TIP3     199      TIP3     OH2      OT      -0.834000       15.9994           0
     22906 TIP3     199      TIP3     H1       HT       0.417000       1.00800           0
     22907 TIP3     199      TIP3     H2       HT       0.417000       1.00800           0
     22908 TIP3     200      TIP3     OH2      OT      -0.834000       15.9994           0
     22909 TIP3     200      TIP3     H1       HT       0.417000       1.00800           0
     22910 TIP3     200      TIP3     H2       HT       0.417000       1.00800           0
     22911 TIP3     201      TIP3     OH2      OT      -0.834000       15.9994           0
     22912 TIP3     201      TIP3     H1       HT       0.417000       1.00800           0
     22913 TIP3     201      TIP3     H2       HT       0.417000       1.00800           0
     22914 TIP3     202      TIP3     OH2      OT      -0.834000       15.9994           0
     22915 TIP3     202      TIP3     H1       HT       0.417000       1.00800           0
     22916 TIP3     202      TIP3     H2       HT       0.417000       1.00800           0
     22917 TIP3     203      TIP3     OH2      OT      -0.834000       15.9994           0
     22918 TIP3     203      TIP3     H1       HT       0.417000       1.00800           0
     22919 TIP3     203      TIP3     H2       HT       0.417000       1.00800           0
     22920 TIP3     204      TIP3     OH2      OT      -0.834000       15.9994           0
     22921 TIP3     204      TIP3     H1       HT       0.417000       1.00800           0
     22922 TIP3     204      TIP3     H2       HT       0.417000       1.00800           0
     22923 TIP3     205      TIP3     OH2      OT      -0.834000       15.9994           0
     22924 TIP3     205      TIP3     H1       HT       0.417000       1.00800           0
     22925 TIP3     205      TIP3     H2       HT       0.417000       1.00800           0
     22926 TIP3     206      TIP3     OH2      OT      -0.834000       15.9994           0
     22927 TIP3     206      TIP3     H1       HT       0.417000       1.00800           0
     22928 TIP3     206      TIP3     H2       HT       0.417000       1.00800           0
     22929 TIP3     207      TIP3     OH2      OT      -0.834000       15.9994           0
     22930 TIP3     207      TIP3     H1       HT       0.417000       1.00800           0
     22931 TIP3     207      TIP3     H2       HT       0.417000       1.00800           0
     22932 TIP3     208      TIP3     OH2      OT      -0.834000       15.9994           0
     22933 TIP3     208      TIP3     H1       HT       0.417000       1.00800           0
     22934 TIP3     208      TIP3     H2       HT       0.417000       1.00800           0
     22935 TIP3     209      TIP3     OH2      OT      -0.834000       15.9994           0
     22936 TIP3     209      TIP3     H1       HT       0.417000       1.00800           0
     22937 TIP3     209      TIP3     H2       HT       0.417000       1.00800           0
     22938 TIP3     210      TIP3     OH2      OT      -0.834000       15.9994           0
     22939 TIP3     210      TIP3     H1       HT       0.417000       1.00800           0
     22940 TIP3     210      TIP3     H2       HT       0.417000       1.00800           0
     22941 TIP3     211      TIP3     OH2      OT      -0.834000       15.9994           0
     22942 TIP3     211      TIP3     H1       HT       0.417000       1.00800           0
     22943 TIP3     211      TIP3     H2       HT       0.417000       1.00800           0
     22944 TIP3     212      TIP3     OH2      OT      -0.834000       15.9994           0
     22945 TIP3     212      TIP3     H1       HT       0.417000       1.00800           0
     22946 TIP3     212      TIP3     H2       HT       0.417000       1.00800           0
     22947 TIP3     213      TIP3     OH2      OT      -0.834000       15.9994           0
     22948 TIP3     213      TIP3     H1       HT       0.417000       1.00800           0
     22949 TIP3     213      TIP3     H2       HT       0.417000       1.00800           0
     22950 TIP3     214      TIP3     OH2      OT      -0.834000       15.9994           0
     22951 TIP3     214      TIP3     H1       HT       0.417000       1.00800           0
     22952 TIP3     214      TIP3     H2       HT       0.417000       1.00800           0
     22953 TIP3     215      TIP3     OH2      OT      -0.834000       15.9994           0
     22954 TIP3     215      TIP3     H1       HT       0.417000       1.00800           0
     22955 TIP3     215      TIP3     H2       HT       0.417000       1.00800           0
     22956 TIP3     216      TIP3     OH2      OT      -0.834000       15.9994           0
     22957 TIP3     216      TIP3     H1       HT       0.417000       1.00800           0
     22958 TIP3     216      TIP3     H2       HT       0.417000       1.00800           0
     22959 TIP3     217      TIP3     OH2      OT      -0.834000       15.9994           0
     22960 TIP3     217      TIP3     H1       HT       0.417000       1.00800           0
     22961 TIP3     217      TIP3     H2       HT       0.417000       1.00800           0
     22962 TIP3     218      TIP3     OH2      OT      -0.834000       15.9994           0
     22963 TIP3     218      TIP3     H1       HT       0.417000       1.00800           0
     22964 TIP3     218      TIP3     H2       HT       0.417000       1.00800           0
     22965 TIP3     219      TIP3     OH2      OT      -0.834000       15.9994           0
     22966 TIP3     219      TIP3     H1       HT       0.417000       1.00800           0
     22967 TIP3     219      TIP3     H2       HT       0.417000       1.00800           0
     22968 TIP3     220      TIP3     OH2      OT      -0.834000       15.9994           0
     22969 TIP3     220      TIP3     H1       HT       0.417000       1.00800           0
     22970 TIP3     220      TIP3     H2       HT       0.417000       1.00800           0
     22971 TIP3     221      TIP3     OH2      OT      -0.834000       15.9994           0
     22972 TIP3     221      TIP3     H1       HT       0.417000       1.00800           0
     22973 TIP3     221      TIP3     H2       HT       0.417000       1.00800           0
     22974 TIP3     222      TIP3     OH2      OT      -0.834000       15.9994           0
     22975 TIP3     222      TIP3     H1       HT       0.417000       1.00800           0
     22976 TIP3     222      TIP3     H2       HT       0.417000       1.00800           0
     22977 TIP3     223      TIP3     OH2      OT      -0.834000       15.9994           0
     22978 TIP3     223      TIP3     H1       HT       0.417000       1.00800           0
     22979 TIP3     223      TIP3     H2       HT       0.417000       1.00800           0
     22980 TIP3     224      TIP3     OH2      OT      -0.834000       15.9994           0
     22981 TIP3     224      TIP3     H1       HT       0.417000       1.00800           0
     22982 TIP3     224      TIP3     H2       HT       0.417000       1.00800           0
     22983 TIP3     225      TIP3     OH2      OT      -0.834000       15.9994           0
     22984 TIP3     225      TIP3     H1       HT       0.417000       1.00800           0
     22985 TIP3     225      TIP3     H2       HT       0.417000       1.00800           0
     22986 TIP3     226      TIP3     OH2      OT      -0.834000       15.9994           0
     22987 TIP3     226      TIP3     H1       HT       0.417000       1.00800           0
     22988 TIP3     226      TIP3     H2       HT       0.417000       1.00800           0
     22989 TIP3     227      TIP3     OH2      OT      -0.834000       15.9994           0
     22990 TIP3     227      TIP3     H1       HT       0.417000       1.00800           0
     22991 TIP3     227      TIP3     H2       HT       0.417000       1.00800           0
     22992 TIP3     228      TIP3     OH2      OT      -0.834000       15.9994           0
     22993 TIP3     228      TIP3     H1       HT       0.417000       1.00800           0
     22994 TIP3     228      TIP3     H2       HT       0.417000       1.00800           0
     22995 TIP3     229      TIP3     OH2      OT      -0.834000       15.9994           0
     22996 TIP3     229      TIP3     H1       HT       0.417000       1.00800           0
     22997 TIP3     229      TIP3     H2       HT       0.417000       1.00800           0
     22998 TIP3     230      TIP3     OH2      OT      -0.834000       15.9994           0
     22999 TIP3     230      TIP3     H1       HT       0.417000       1.00800           0
     23000 TIP3     230      TIP3     H2       HT       0.417000       1.00800           0
     23001 TIP3     231      TIP3     OH2      OT      -0.834000       15.9994           0
     23002 TIP3     231      TIP3     H1       HT       0.417000       1.00800           0
     23003 TIP3     231      TIP3     H2       HT       0.417000       1.00800           0
     23004 TIP3     232      TIP3     OH2      OT      -0.834000       15.9994           0
     23005 TIP3     232      TIP3     H1       HT       0.417000       1.00800           0
     23006 TIP3     232      TIP3     H2       HT       0.417000       1.00800           0
     23007 TIP3     233      TIP3     OH2      OT      -0.834000       15.9994           0
     23008 TIP3     233      TIP3     H1       HT       0.417000       1.00800           0
     23009 TIP3     233      TIP3     H2       HT       0.417000       1.00800           0
     23010 TIP3     234      TIP3     OH2      OT      -0.834000       15.9994           0
     23011 TIP3     234      TIP3     H1       HT       0.417000       1.00800           0
     23012 TIP3     234      TIP3     H2       HT       0.417000       1.00800           0
     23013 TIP3     235      TIP3     OH2      OT      -0.834000       15.9994           0
     23014 TIP3     235      TIP3     H1       HT       0.417000       1.00800           0
     23015 TIP3     235      TIP3     H2       HT       0.417000       1.00800           0
     23016 TIP3     236      TIP3     OH2      OT      -0.834000       15.9994           0
     23017 TIP3     236      TIP3     H1       HT       0.417000       1.00800           0
     23018 TIP3     236      TIP3     H2       HT       0.417000       1.00800           0
     23019 TIP3     237      TIP3     OH2      OT      -0.834000       15.9994           0
     23020 TIP3     237      TIP3     H1       HT       0.417000       1.00800           0
     23021 TIP3     237      TIP3     H2       HT       0.417000       1.00800           0
     23022 TIP3     238      TIP3     OH2      OT      -0.834000       15.9994           0
     23023 TIP3     238      TIP3     H1       HT       0.417000       1.00800           0
     23024 TIP3     238      TIP3     H2       HT       0.417000       1.00800           0
     23025 TIP3     239      TIP3     OH2      OT      -0.834000       15.9994           0
     23026 TIP3     239      TIP3     H1       HT       0.417000       1.00800           0
     23027 TIP3     239      TIP3     H2       HT       0.417000       1.00800           0
     23028 TIP3     240      TIP3     OH2      OT      -0.834000       15.9994           0
     23029 TIP3     240      TIP3     H1       HT       0.417000       1.00800           0
     23030 TIP3     240      TIP3     H2       HT       0.417000       1.00800           0
     23031 TIP3     241      TIP3     OH2      OT      -0.834000       15.9994           0
     23032 TIP3     241      TIP3     H1       HT       0.417000       1.00800           0
     23033 TIP3     241      TIP3     H2       HT       0.417000       1.00800           0
     23034 TIP3     242      TIP3     OH2      OT      -0.834000       15.9994           0
     23035 TIP3     242      TIP3     H1       HT       0.417000       1.00800           0
     23036 TIP3     242      TIP3     H2       HT       0.417000       1.00800           0
     23037 TIP3     243      TIP3     OH2      OT      -0.834000       15.9994           0
     23038 TIP3     243      TIP3     H1       HT       0.417000       1.00800           0
     23039 TIP3     243      TIP3     H2       HT       0.417000       1.00800           0
     23040 TIP3     244      TIP3     OH2      OT      -0.834000       15.9994           0
     23041 TIP3     244      TIP3     H1       HT       0.417000       1.00800           0
     23042 TIP3     244      TIP3     H2       HT       0.417000       1.00800           0
     23043 TIP3     245      TIP3     OH2      OT      -0.834000       15.9994           0
     23044 TIP3     245      TIP3     H1       HT       0.417000       1.00800           0
     23045 TIP3     245      TIP3     H2       HT       0.417000       1.00800           0
     23046 TIP3     246      TIP3     OH2      OT      -0.834000       15.9994           0
     23047 TIP3     246      TIP3     H1       HT       0.417000       1.00800           0
     23048 TIP3     246      TIP3     H2       HT       0.417000       1.00800           0
     23049 TIP3     247      TIP3     OH2      OT      -0.834000       15.9994           0
     23050 TIP3     247      TIP3     H1       HT       0.417000       1.00800           0
     23051 TIP3     247      TIP3     H2       HT       0.417000       1.00800           0
     23052 TIP3     248      TIP3     OH2      OT      -0.834000       15.9994           0
     23053 TIP3     248      TIP3     H1       HT       0.417000       1.00800           0
     23054 TIP3     248      TIP3     H2       HT       0.417000       1.00800           0
     23055 TIP3     249      TIP3     OH2      OT      -0.834000       15.9994           0
     23056 TIP3     249      TIP3     H1       HT       0.417000       1.00800           0
     23057 TIP3     249      TIP3     H2       HT       0.417000       1.00800           0
     23058 TIP3     250      TIP3     OH2      OT      -0.834000       15.9994           0
     23059 TIP3     250      TIP3     H1       HT       0.417000       1.00800           0
     23060 TIP3     250      TIP3     H2       HT       0.417000       1.00800           0
     23061 TIP3     251      TIP3     OH2      OT      -0.834000       15.9994           0
     23062 TIP3     251      TIP3     H1       HT       0.417000       1.00800           0
     23063 TIP3     251      TIP3     H2       HT       0.417000       1.00800           0
     23064 TIP3     252      TIP3     OH2      OT      -0.834000       15.9994           0
     23065 TIP3     252      TIP3     H1       HT       0.417000       1.00800           0
     23066 TIP3     252      TIP3     H2       HT       0.417000       1.00800           0
     23067 TIP3     253      TIP3     OH2      OT      -0.834000       15.9994           0
     23068 TIP3     253      TIP3     H1       HT       0.417000       1.00800           0
     23069 TIP3     253      TIP3     H2       HT       0.417000       1.00800           0
     23070 TIP3     254      TIP3     OH2      OT      -0.834000       15.9994           0
     23071 TIP3     254      TIP3     H1       HT       0.417000       1.00800           0
     23072 TIP3     254      TIP3     H2       HT       0.417000       1.00800           0
     23073 TIP3     255      TIP3     OH2      OT      -0.834000       15.9994           0
     23074 TIP3     255      TIP3     H1       HT       0.417000       1.00800           0
     23075 TIP3     255      TIP3     H2       HT       0.417000       1.00800           0
     23076 TIP3     256      TIP3     OH2      OT      -0.834000       15.9994           0
     23077 TIP3     256      TIP3     H1       HT       0.417000       1.00800           0
     23078 TIP3     256      TIP3     H2       HT       0.417000       1.00800           0
     23079 TIP3     257      TIP3     OH2      OT      -0.834000       15.9994           0
     23080 TIP3     257      TIP3     H1       HT       0.417000       1.00800           0
     23081 TIP3     257      TIP3     H2       HT       0.417000       1.00800           0
     23082 TIP3     258      TIP3     OH2      OT      -0.834000       15.9994           0
     23083 TIP3     258      TIP3     H1       HT       0.417000       1.00800           0
     23084 TIP3     258      TIP3     H2       HT       0.417000       1.00800           0
     23085 TIP3     259      TIP3     OH2      OT      -0.834000       15.9994           0
     23086 TIP3     259      TIP3     H1       HT       0.417000       1.00800           0
     23087 TIP3     259      TIP3     H2       HT       0.417000       1.00800           0
     23088 TIP3     260      TIP3     OH2      OT      -0.834000       15.9994           0
     23089 TIP3     260      TIP3     H1       HT       0.417000       1.00800           0
     23090 TIP3     260      TIP3     H2       HT       0.417000       1.00800           0
     23091 TIP3     261      TIP3     OH2      OT      -0.834000       15.9994           0
     23092 TIP3     261      TIP3     H1       HT       0.417000       1.00800           0
     23093 TIP3     261      TIP3     H2       HT       0.417000       1.00800           0
     23094 TIP3     262      TIP3     OH2      OT      -0.834000       15.9994           0
     23095 TIP3     262      TIP3     H1       HT       0.417000       1.00800           0
     23096 TIP3     262      TIP3     H2       HT       0.417000       1.00800           0
     23097 TIP3     263      TIP3     OH2      OT      -0.834000       15.9994           0
     23098 TIP3     263      TIP3     H1       HT       0.417000       1.00800           0
     23099 TIP3     263      TIP3     H2       HT       0.417000       1.00800           0
     23100 TIP3     264      TIP3     OH2      OT      -0.834000       15.9994           0
     23101 TIP3     264      TIP3     H1       HT       0.417000       1.00800           0
     23102 TIP3     264      TIP3     H2       HT       0.417000       1.00800           0
     23103 TIP3     265      TIP3     OH2      OT      -0.834000       15.9994           0
     23104 TIP3     265      TIP3     H1       HT       0.417000       1.00800           0
     23105 TIP3     265      TIP3     H2       HT       0.417000       1.00800           0
     23106 TIP3     266      TIP3     OH2      OT      -0.834000       15.9994           0
     23107 TIP3     266      TIP3     H1       HT       0.417000       1.00800           0
     23108 TIP3     266      TIP3     H2       HT       0.417000       1.00800           0
     23109 TIP3     267      TIP3     OH2      OT      -0.834000       15.9994           0
     23110 TIP3     267      TIP3     H1       HT       0.417000       1.00800           0
     23111 TIP3     267      TIP3     H2       HT       0.417000       1.00800           0
     23112 TIP3     268      TIP3     OH2      OT      -0.834000       15.9994           0
     23113 TIP3     268      TIP3     H1       HT       0.417000       1.00800           0
     23114 TIP3     268      TIP3     H2       HT       0.417000       1.00800           0
     23115 TIP3     269      TIP3     OH2      OT      -0.834000       15.9994           0
     23116 TIP3     269      TIP3     H1       HT       0.417000       1.00800           0
     23117 TIP3     269      TIP3     H2       HT       0.417000       1.00800           0
     23118 TIP3     270      TIP3     OH2      OT      -0.834000       15.9994           0
     23119 TIP3     270      TIP3     H1       HT       0.417000       1.00800           0
     23120 TIP3     270      TIP3     H2       HT       0.417000       1.00800           0
     23121 TIP3     271      TIP3     OH2      OT      -0.834000       15.9994           0
     23122 TIP3     271      TIP3     H1       HT       0.417000       1.00800           0
     23123 TIP3     271      TIP3     H2       HT       0.417000       1.00800           0
     23124 TIP3     272      TIP3     OH2      OT      -0.834000       15.9994           0
     23125 TIP3     272      TIP3     H1       HT       0.417000       1.00800           0
     23126 TIP3     272      TIP3     H2       HT       0.417000       1.00800           0
     23127 TIP3     273      TIP3     OH2      OT      -0.834000       15.9994           0
     23128 TIP3     273      TIP3     H1       HT       0.417000       1.00800           0
     23129 TIP3     273      TIP3     H2       HT       0.417000       1.00800           0
     23130 TIP3     274      TIP3     OH2      OT      -0.834000       15.9994           0
     23131 TIP3     274      TIP3     H1       HT       0.417000       1.00800           0
     23132 TIP3     274      TIP3     H2       HT       0.417000       1.00800           0
     23133 TIP3     275      TIP3     OH2      OT      -0.834000       15.9994           0
     23134 TIP3     275      TIP3     H1       HT       0.417000       1.00800           0
     23135 TIP3     275      TIP3     H2       HT       0.417000       1.00800           0
     23136 TIP3     276      TIP3     OH2      OT      -0.834000       15.9994           0
     23137 TIP3     276      TIP3     H1       HT       0.417000       1.00800           0
     23138 TIP3     276      TIP3     H2       HT       0.417000       1.00800           0
     23139 TIP3     277      TIP3     OH2      OT      -0.834000       15.9994           0
     23140 TIP3     277      TIP3     H1       HT       0.417000       1.00800           0
     23141 TIP3     277      TIP3     H2       HT       0.417000       1.00800           0
     23142 TIP3     278      TIP3     OH2      OT      -0.834000       15.9994           0
     23143 TIP3     278      TIP3     H1       HT       0.417000       1.00800           0
     23144 TIP3     278      TIP3     H2       HT       0.417000       1.00800           0
     23145 TIP3     279      TIP3     OH2      OT      -0.834000       15.9994           0
     23146 TIP3     279      TIP3     H1       HT       0.417000       1.00800           0
     23147 TIP3     279      TIP3     H2       HT       0.417000       1.00800           0
     23148 TIP3     280      TIP3     OH2      OT      -0.834000       15.9994           0
     23149 TIP3     280      TIP3     H1       HT       0.417000       1.00800           0
     23150 TIP3     280      TIP3     H2       HT       0.417000       1.00800           0
     23151 TIP3     281      TIP3     OH2      OT      -0.834000       15.9994           0
     23152 TIP3     281      TIP3     H1       HT       0.417000       1.00800           0
     23153 TIP3     281      TIP3     H2       HT       0.417000       1.00800           0
     23154 TIP3     282      TIP3     OH2      OT      -0.834000       15.9994           0
     23155 TIP3     282      TIP3     H1       HT       0.417000       1.00800           0
     23156 TIP3     282      TIP3     H2       HT       0.417000       1.00800           0
     23157 TIP3     283      TIP3     OH2      OT      -0.834000       15.9994           0
     23158 TIP3     283      TIP3     H1       HT       0.417000       1.00800           0
     23159 TIP3     283      TIP3     H2       HT       0.417000       1.00800           0
     23160 TIP3     284      TIP3     OH2      OT      -0.834000       15.9994           0
     23161 TIP3     284      TIP3     H1       HT       0.417000       1.00800           0
     23162 TIP3     284      TIP3     H2       HT       0.417000       1.00800           0
     23163 TIP3     285      TIP3     OH2      OT      -0.834000       15.9994           0
     23164 TIP3     285      TIP3     H1       HT       0.417000       1.00800           0
     23165 TIP3     285      TIP3     H2       HT       0.417000       1.00800           0
     23166 TIP3     286      TIP3     OH2      OT      -0.834000       15.9994           0
     23167 TIP3     286      TIP3     H1       HT       0.417000       1.00800           0
     23168 TIP3     286      TIP3     H2       HT       0.417000       1.00800           0
     23169 TIP3     287      TIP3     OH2      OT      -0.834000       15.9994           0
     23170 TIP3     287      TIP3     H1       HT       0.417000       1.00800           0
     23171 TIP3     287      TIP3     H2       HT       0.417000       1.00800           0
     23172 TIP3     288      TIP3     OH2      OT      -0.834000       15.9994           0
     23173 TIP3     288      TIP3     H1       HT       0.417000       1.00800           0
     23174 TIP3     288      TIP3     H2       HT       0.417000       1.00800           0
     23175 TIP3     289      TIP3     OH2      OT      -0.834000       15.9994           0
     23176 TIP3     289      TIP3     H1       HT       0.417000       1.00800           0
     23177 TIP3     289      TIP3     H2       HT       0.417000       1.00800           0
     23178 TIP3     290      TIP3     OH2      OT      -0.834000       15.9994           0
     23179 TIP3     290      TIP3     H1       HT       0.417000       1.00800           0
     23180 TIP3     290      TIP3     H2       HT       0.417000       1.00800           0
     23181 TIP3     291      TIP3     OH2      OT      -0.834000       15.9994           0
     23182 TIP3     291      TIP3     H1       HT       0.417000       1.00800           0
     23183 TIP3     291      TIP3     H2       HT       0.417000       1.00800           0
     23184 TIP3     292      TIP3     OH2      OT      -0.834000       15.9994           0
     23185 TIP3     292      TIP3     H1       HT       0.417000       1.00800           0
     23186 TIP3     292      TIP3     H2       HT       0.417000       1.00800           0
     23187 TIP3     293      TIP3     OH2      OT      -0.834000       15.9994           0
     23188 TIP3     293      TIP3     H1       HT       0.417000       1.00800           0
     23189 TIP3     293      TIP3     H2       HT       0.417000       1.00800           0
     23190 TIP3     294      TIP3     OH2      OT      -0.834000       15.9994           0
     23191 TIP3     294      TIP3     H1       HT       0.417000       1.00800           0
     23192 TIP3     294      TIP3     H2       HT       0.417000       1.00800           0
     23193 TIP3     295      TIP3     OH2      OT      -0.834000       15.9994           0
     23194 TIP3     295      TIP3     H1       HT       0.417000       1.00800           0
     23195 TIP3     295      TIP3     H2       HT       0.417000       1.00800           0
     23196 TIP3     296      TIP3     OH2      OT      -0.834000       15.9994           0
     23197 TIP3     296      TIP3     H1       HT       0.417000       1.00800           0
     23198 TIP3     296      TIP3     H2       HT       0.417000       1.00800           0
     23199 TIP3     297      TIP3     OH2      OT      -0.834000       15.9994           0
     23200 TIP3     297      TIP3     H1       HT       0.417000       1.00800           0
     23201 TIP3     297      TIP3     H2       HT       0.417000       1.00800           0
     23202 TIP3     298      TIP3     OH2      OT      -0.834000       15.9994           0
     23203 TIP3     298      TIP3     H1       HT       0.417000       1.00800           0
     23204 TIP3     298      TIP3     H2       HT       0.417000       1.00800           0
     23205 TIP3     299      TIP3     OH2      OT      -0.834000       15.9994           0
     23206 TIP3     299      TIP3     H1       HT       0.417000       1.00800           0
     23207 TIP3     299      TIP3     H2       HT       0.417000       1.00800           0
     23208 TIP3     300      TIP3     OH2      OT      -0.834000       15.9994           0
     23209 TIP3     300      TIP3     H1       HT       0.417000       1.00800           0
     23210 TIP3     300      TIP3     H2       HT       0.417000       1.00800           0
     23211 TIP3     301      TIP3     OH2      OT      -0.834000       15.9994           0
     23212 TIP3     301      TIP3     H1       HT       0.417000       1.00800           0
     23213 TIP3     301      TIP3     H2       HT       0.417000       1.00800           0
     23214 TIP3     302      TIP3     OH2      OT      -0.834000       15.9994           0
     23215 TIP3     302      TIP3     H1       HT       0.417000       1.00800           0
     23216 TIP3     302      TIP3     H2       HT       0.417000       1.00800           0
     23217 TIP3     303      TIP3     OH2      OT      -0.834000       15.9994           0
     23218 TIP3     303      TIP3     H1       HT       0.417000       1.00800           0
     23219 TIP3     303      TIP3     H2       HT       0.417000       1.00800           0
     23220 TIP3     304      TIP3     OH2      OT      -0.834000       15.9994           0
     23221 TIP3     304      TIP3     H1       HT       0.417000       1.00800           0
     23222 TIP3     304      TIP3     H2       HT       0.417000       1.00800           0
     23223 TIP3     305      TIP3     OH2      OT      -0.834000       15.9994           0
     23224 TIP3     305      TIP3     H1       HT       0.417000       1.00800           0
     23225 TIP3     305      TIP3     H2       HT       0.417000       1.00800           0
     23226 TIP3     306      TIP3     OH2      OT      -0.834000       15.9994           0
     23227 TIP3     306      TIP3     H1       HT       0.417000       1.00800           0
     23228 TIP3     306      TIP3     H2       HT       0.417000       1.00800           0
     23229 TIP3     307      TIP3     OH2      OT      -0.834000       15.9994           0
     23230 TIP3     307      TIP3     H1       HT       0.417000       1.00800           0
     23231 TIP3     307      TIP3     H2       HT       0.417000       1.00800           0
     23232 TIP3     308      TIP3     OH2      OT      -0.834000       15.9994           0
     23233 TIP3     308      TIP3     H1       HT       0.417000       1.00800           0
     23234 TIP3     308      TIP3     H2       HT       0.417000       1.00800           0
     23235 TIP3     309      TIP3     OH2      OT      -0.834000       15.9994           0
     23236 TIP3     309      TIP3     H1       HT       0.417000       1.00800           0
     23237 TIP3     309      TIP3     H2       HT       0.417000       1.00800           0
     23238 TIP3     310      TIP3     OH2      OT      -0.834000       15.9994           0
     23239 TIP3     310      TIP3     H1       HT       0.417000       1.00800           0
     23240 TIP3     310      TIP3     H2       HT       0.417000       1.00800           0
     23241 TIP3     311      TIP3     OH2      OT      -0.834000       15.9994           0
     23242 TIP3     311      TIP3     H1       HT       0.417000       1.00800           0
     23243 TIP3     311      TIP3     H2       HT       0.417000       1.00800           0
     23244 TIP3     312      TIP3     OH2      OT      -0.834000       15.9994           0
     23245 TIP3     312      TIP3     H1       HT       0.417000       1.00800           0
     23246 TIP3     312      TIP3     H2       HT       0.417000       1.00800           0
     23247 TIP3     313      TIP3     OH2      OT      -0.834000       15.9994           0
     23248 TIP3     313      TIP3     H1       HT       0.417000       1.00800           0
     23249 TIP3     313      TIP3     H2       HT       0.417000       1.00800           0
     23250 TIP3     314      TIP3     OH2      OT      -0.834000       15.9994           0
     23251 TIP3     314      TIP3     H1       HT       0.417000       1.00800           0
     23252 TIP3     314      TIP3     H2       HT       0.417000       1.00800           0
     23253 TIP3     315      TIP3     OH2      OT      -0.834000       15.9994           0
     23254 TIP3     315      TIP3     H1       HT       0.417000       1.00800           0
     23255 TIP3     315      TIP3     H2       HT       0.417000       1.00800           0
     23256 TIP3     316      TIP3     OH2      OT      -0.834000       15.9994           0
     23257 TIP3     316      TIP3     H1       HT       0.417000       1.00800           0
     23258 TIP3     316      TIP3     H2       HT       0.417000       1.00800           0
     23259 TIP3     317      TIP3     OH2      OT      -0.834000       15.9994           0
     23260 TIP3     317      TIP3     H1       HT       0.417000       1.00800           0
     23261 TIP3     317      TIP3     H2       HT       0.417000       1.00800           0
     23262 TIP3     318      TIP3     OH2      OT      -0.834000       15.9994           0
     23263 TIP3     318      TIP3     H1       HT       0.417000       1.00800           0
     23264 TIP3     318      TIP3     H2       HT       0.417000       1.00800           0
     23265 TIP3     319      TIP3     OH2      OT      -0.834000       15.9994           0
     23266 TIP3     319      TIP3     H1       HT       0.417000       1.00800           0
     23267 TIP3     319      TIP3     H2       HT       0.417000       1.00800           0
     23268 TIP3     320      TIP3     OH2      OT      -0.834000       15.9994           0
     23269 TIP3     320      TIP3     H1       HT       0.417000       1.00800           0
     23270 TIP3     320      TIP3     H2       HT       0.417000       1.00800           0
     23271 TIP3     321      TIP3     OH2      OT      -0.834000       15.9994           0
     23272 TIP3     321      TIP3     H1       HT       0.417000       1.00800           0
     23273 TIP3     321      TIP3     H2       HT       0.417000       1.00800           0
     23274 TIP3     322      TIP3     OH2      OT      -0.834000       15.9994           0
     23275 TIP3     322      TIP3     H1       HT       0.417000       1.00800           0
     23276 TIP3     322      TIP3     H2       HT       0.417000       1.00800           0
     23277 TIP3     323      TIP3     OH2      OT      -0.834000       15.9994           0
     23278 TIP3     323      TIP3     H1       HT       0.417000       1.00800           0
     23279 TIP3     323      TIP3     H2       HT       0.417000       1.00800           0
     23280 TIP3     324      TIP3     OH2      OT      -0.834000       15.9994           0
     23281 TIP3     324      TIP3     H1       HT       0.417000       1.00800           0
     23282 TIP3     324      TIP3     H2       HT       0.417000       1.00800           0
     23283 TIP3     325      TIP3     OH2      OT      -0.834000       15.9994           0
     23284 TIP3     325      TIP3     H1       HT       0.417000       1.00800           0
     23285 TIP3     325      TIP3     H2       HT       0.417000       1.00800           0
     23286 TIP3     326      TIP3     OH2      OT      -0.834000       15.9994           0
     23287 TIP3     326      TIP3     H1       HT       0.417000       1.00800           0
     23288 TIP3     326      TIP3     H2       HT       0.417000       1.00800           0
     23289 TIP3     327      TIP3     OH2      OT      -0.834000       15.9994           0
     23290 TIP3     327      TIP3     H1       HT       0.417000       1.00800           0
     23291 TIP3     327      TIP3     H2       HT       0.417000       1.00800           0
     23292 TIP3     328      TIP3     OH2      OT      -0.834000       15.9994           0
     23293 TIP3     328      TIP3     H1       HT       0.417000       1.00800           0
     23294 TIP3     328      TIP3     H2       HT       0.417000       1.00800           0
     23295 TIP3     329      TIP3     OH2      OT      -0.834000       15.9994           0
     23296 TIP3     329      TIP3     H1       HT       0.417000       1.00800           0
     23297 TIP3     329      TIP3     H2       HT       0.417000       1.00800           0
     23298 TIP3     330      TIP3     OH2      OT      -0.834000       15.9994           0
     23299 TIP3     330      TIP3     H1       HT       0.417000       1.00800           0
     23300 TIP3     330      TIP3     H2       HT       0.417000       1.00800           0
     23301 TIP3     331      TIP3     OH2      OT      -0.834000       15.9994           0
     23302 TIP3     331      TIP3     H1       HT       0.417000       1.00800           0
     23303 TIP3     331      TIP3     H2       HT       0.417000       1.00800           0
     23304 TIP3     332      TIP3     OH2      OT      -0.834000       15.9994           0
     23305 TIP3     332      TIP3     H1       HT       0.417000       1.00800           0
     23306 TIP3     332      TIP3     H2       HT       0.417000       1.00800           0
     23307 TIP3     333      TIP3     OH2      OT      -0.834000       15.9994           0
     23308 TIP3     333      TIP3     H1       HT       0.417000       1.00800           0
     23309 TIP3     333      TIP3     H2       HT       0.417000       1.00800           0
     23310 TIP3     334      TIP3     OH2      OT      -0.834000       15.9994           0
     23311 TIP3     334      TIP3     H1       HT       0.417000       1.00800           0
     23312 TIP3     334      TIP3     H2       HT       0.417000       1.00800           0
     23313 TIP3     335      TIP3     OH2      OT      -0.834000       15.9994           0
     23314 TIP3     335      TIP3     H1       HT       0.417000       1.00800           0
     23315 TIP3     335      TIP3     H2       HT       0.417000       1.00800           0
     23316 TIP3     336      TIP3     OH2      OT      -0.834000       15.9994           0
     23317 TIP3     336      TIP3     H1       HT       0.417000       1.00800           0
     23318 TIP3     336      TIP3     H2       HT       0.417000       1.00800           0
     23319 TIP3     337      TIP3     OH2      OT      -0.834000       15.9994           0
     23320 TIP3     337      TIP3     H1       HT       0.417000       1.00800           0
     23321 TIP3     337      TIP3     H2       HT       0.417000       1.00800           0
     23322 TIP3     338      TIP3     OH2      OT      -0.834000       15.9994           0
     23323 TIP3     338      TIP3     H1       HT       0.417000       1.00800           0
     23324 TIP3     338      TIP3     H2       HT       0.417000       1.00800           0
     23325 TIP3     339      TIP3     OH2      OT      -0.834000       15.9994           0
     23326 TIP3     339      TIP3     H1       HT       0.417000       1.00800           0
     23327 TIP3     339      TIP3     H2       HT       0.417000       1.00800           0
     23328 TIP3     340      TIP3     OH2      OT      -0.834000       15.9994           0
     23329 TIP3     340      TIP3     H1       HT       0.417000       1.00800           0
     23330 TIP3     340      TIP3     H2       HT       0.417000       1.00800           0
     23331 TIP3     341      TIP3     OH2      OT      -0.834000       15.9994           0
     23332 TIP3     341      TIP3     H1       HT       0.417000       1.00800           0
     23333 TIP3     341      TIP3     H2       HT       0.417000       1.00800           0
     23334 TIP3     342      TIP3     OH2      OT      -0.834000       15.9994           0
     23335 TIP3     342      TIP3     H1       HT       0.417000       1.00800           0
     23336 TIP3     342      TIP3     H2       HT       0.417000       1.00800           0
     23337 TIP3     343      TIP3     OH2      OT      -0.834000       15.9994           0
     23338 TIP3     343      TIP3     H1       HT       0.417000       1.00800           0
     23339 TIP3     343      TIP3     H2       HT       0.417000       1.00800           0
     23340 TIP3     344      TIP3     OH2      OT      -0.834000       15.9994           0
     23341 TIP3     344      TIP3     H1       HT       0.417000       1.00800           0
     23342 TIP3     344      TIP3     H2       HT       0.417000       1.00800           0
     23343 TIP3     345      TIP3     OH2      OT      -0.834000       15.9994           0
     23344 TIP3     345      TIP3     H1       HT       0.417000       1.00800           0
     23345 TIP3     345      TIP3     H2       HT       0.417000       1.00800           0
     23346 TIP3     346      TIP3     OH2      OT      -0.834000       15.9994           0
     23347 TIP3     346      TIP3     H1       HT       0.417000       1.00800           0
     23348 TIP3     346      TIP3     H2       HT       0.417000       1.00800           0
     23349 TIP3     347      TIP3     OH2      OT      -0.834000       15.9994           0
     23350 TIP3     347      TIP3     H1       HT       0.417000       1.00800           0
     23351 TIP3     347      TIP3     H2       HT       0.417000       1.00800           0
     23352 TIP3     348      TIP3     OH2      OT      -0.834000       15.9994           0
     23353 TIP3     348      TIP3     H1       HT       0.417000       1.00800           0
     23354 TIP3     348      TIP3     H2       HT       0.417000       1.00800           0
     23355 TIP3     349      TIP3     OH2      OT      -0.834000       15.9994           0
     23356 TIP3     349      TIP3     H1       HT       0.417000       1.00800           0
     23357 TIP3     349      TIP3     H2       HT       0.417000       1.00800           0
     23358 TIP3     350      TIP3     OH2      OT      -0.834000       15.9994           0
     23359 TIP3     350      TIP3     H1       HT       0.417000       1.00800           0
     23360 TIP3     350      TIP3     H2       HT       0.417000       1.00800           0
     23361 TIP3     351      TIP3     OH2      OT      -0.834000       15.9994           0
     23362 TIP3     351      TIP3     H1       HT       0.417000       1.00800           0
     23363 TIP3     351      TIP3     H2       HT       0.417000       1.00800           0
     23364 TIP3     352      TIP3     OH2      OT      -0.834000       15.9994           0
     23365 TIP3     352      TIP3     H1       HT       0.417000       1.00800           0
     23366 TIP3     352      TIP3     H2       HT       0.417000       1.00800           0
     23367 TIP3     353      TIP3     OH2      OT      -0.834000       15.9994           0
     23368 TIP3     353      TIP3     H1       HT       0.417000       1.00800           0
     23369 TIP3     353      TIP3     H2       HT       0.417000       1.00800           0
     23370 TIP3     354      TIP3     OH2      OT      -0.834000       15.9994           0
     23371 TIP3     354      TIP3     H1       HT       0.417000       1.00800           0
     23372 TIP3     354      TIP3     H2       HT       0.417000       1.00800           0
     23373 TIP3     355      TIP3     OH2      OT      -0.834000       15.9994           0
     23374 TIP3     355      TIP3     H1       HT       0.417000       1.00800           0
     23375 TIP3     355      TIP3     H2       HT       0.417000       1.00800           0
     23376 TIP3     356      TIP3     OH2      OT      -0.834000       15.9994           0
     23377 TIP3     356      TIP3     H1       HT       0.417000       1.00800           0
     23378 TIP3     356      TIP3     H2       HT       0.417000       1.00800           0
     23379 TIP3     357      TIP3     OH2      OT      -0.834000       15.9994           0
     23380 TIP3     357      TIP3     H1       HT       0.417000       1.00800           0
     23381 TIP3     357      TIP3     H2       HT       0.417000       1.00800           0
     23382 TIP3     358      TIP3     OH2      OT      -0.834000       15.9994           0
     23383 TIP3     358      TIP3     H1       HT       0.417000       1.00800           0
     23384 TIP3     358      TIP3     H2       HT       0.417000       1.00800           0
     23385 TIP3     359      TIP3     OH2      OT      -0.834000       15.9994           0
     23386 TIP3     359      TIP3     H1       HT       0.417000       1.00800           0
     23387 TIP3     359      TIP3     H2       HT       0.417000       1.00800           0
     23388 TIP3     360      TIP3     OH2      OT      -0.834000       15.9994           0
     23389 TIP3     360      TIP3     H1       HT       0.417000       1.00800           0
     23390 TIP3     360      TIP3     H2       HT       0.417000       1.00800           0
     23391 TIP3     361      TIP3     OH2      OT      -0.834000       15.9994           0
     23392 TIP3     361      TIP3     H1       HT       0.417000       1.00800           0
     23393 TIP3     361      TIP3     H2       HT       0.417000       1.00800           0
     23394 TIP3     362      TIP3     OH2      OT      -0.834000       15.9994           0
     23395 TIP3     362      TIP3     H1       HT       0.417000       1.00800           0
     23396 TIP3     362      TIP3     H2       HT       0.417000       1.00800           0
     23397 TIP3     363      TIP3     OH2      OT      -0.834000       15.9994           0
     23398 TIP3     363      TIP3     H1       HT       0.417000       1.00800           0
     23399 TIP3     363      TIP3     H2       HT       0.417000       1.00800           0
     23400 TIP3     364      TIP3     OH2      OT      -0.834000       15.9994           0
     23401 TIP3     364      TIP3     H1       HT       0.417000       1.00800           0
     23402 TIP3     364      TIP3     H2       HT       0.417000       1.00800           0
     23403 TIP3     365      TIP3     OH2      OT      -0.834000       15.9994           0
     23404 TIP3     365      TIP3     H1       HT       0.417000       1.00800           0
     23405 TIP3     365      TIP3     H2       HT       0.417000       1.00800           0
     23406 TIP3     366      TIP3     OH2      OT      -0.834000       15.9994           0
     23407 TIP3     366      TIP3     H1       HT       0.417000       1.00800           0
     23408 TIP3     366      TIP3     H2       HT       0.417000       1.00800           0
     23409 TIP3     367      TIP3     OH2      OT      -0.834000       15.9994           0
     23410 TIP3     367      TIP3     H1       HT       0.417000       1.00800           0
     23411 TIP3     367      TIP3     H2       HT       0.417000       1.00800           0
     23412 TIP3     368      TIP3     OH2      OT      -0.834000       15.9994           0
     23413 TIP3     368      TIP3     H1       HT       0.417000       1.00800           0
     23414 TIP3     368      TIP3     H2       HT       0.417000       1.00800           0
     23415 TIP3     369      TIP3     OH2      OT      -0.834000       15.9994           0
     23416 TIP3     369      TIP3     H1       HT       0.417000       1.00800           0
     23417 TIP3     369      TIP3     H2       HT       0.417000       1.00800           0
     23418 TIP3     370      TIP3     OH2      OT      -0.834000       15.9994           0
     23419 TIP3     370      TIP3     H1       HT       0.417000       1.00800           0
     23420 TIP3     370      TIP3     H2       HT       0.417000       1.00800           0
     23421 TIP3     371      TIP3     OH2      OT      -0.834000       15.9994           0
     23422 TIP3     371      TIP3     H1       HT       0.417000       1.00800           0
     23423 TIP3     371      TIP3     H2       HT       0.417000       1.00800           0
     23424 TIP3     372      TIP3     OH2      OT      -0.834000       15.9994           0
     23425 TIP3     372      TIP3     H1       HT       0.417000       1.00800           0
     23426 TIP3     372      TIP3     H2       HT       0.417000       1.00800           0
     23427 TIP3     373      TIP3     OH2      OT      -0.834000       15.9994           0
     23428 TIP3     373      TIP3     H1       HT       0.417000       1.00800           0
     23429 TIP3     373      TIP3     H2       HT       0.417000       1.00800           0
     23430 TIP3     374      TIP3     OH2      OT      -0.834000       15.9994           0
     23431 TIP3     374      TIP3     H1       HT       0.417000       1.00800           0
     23432 TIP3     374      TIP3     H2       HT       0.417000       1.00800           0
     23433 TIP3     375      TIP3     OH2      OT      -0.834000       15.9994           0
     23434 TIP3     375      TIP3     H1       HT       0.417000       1.00800           0
     23435 TIP3     375      TIP3     H2       HT       0.417000       1.00800           0
     23436 TIP3     376      TIP3     OH2      OT      -0.834000       15.9994           0
     23437 TIP3     376      TIP3     H1       HT       0.417000       1.00800           0
     23438 TIP3     376      TIP3     H2       HT       0.417000       1.00800           0
     23439 TIP3     377      TIP3     OH2      OT      -0.834000       15.9994           0
     23440 TIP3     377      TIP3     H1       HT       0.417000       1.00800           0
     23441 TIP3     377      TIP3     H2       HT       0.417000       1.00800           0
     23442 TIP3     378      TIP3     OH2      OT      -0.834000       15.9994           0
     23443 TIP3     378      TIP3     H1       HT       0.417000       1.00800           0
     23444 TIP3     378      TIP3     H2       HT       0.417000       1.00800           0
     23445 TIP3     379      TIP3     OH2      OT      -0.834000       15.9994           0
     23446 TIP3     379      TIP3     H1       HT       0.417000       1.00800           0
     23447 TIP3     379      TIP3     H2       HT       0.417000       1.00800           0
     23448 TIP3     380      TIP3     OH2      OT      -0.834000       15.9994           0
     23449 TIP3     380      TIP3     H1       HT       0.417000       1.00800           0
     23450 TIP3     380      TIP3     H2       HT       0.417000       1.00800           0
     23451 TIP3     381      TIP3     OH2      OT      -0.834000       15.9994           0
     23452 TIP3     381      TIP3     H1       HT       0.417000       1.00800           0
     23453 TIP3     381      TIP3     H2       HT       0.417000       1.00800           0
     23454 TIP3     382      TIP3     OH2      OT      -0.834000       15.9994           0
     23455 TIP3     382      TIP3     H1       HT       0.417000       1.00800           0
     23456 TIP3     382      TIP3     H2       HT       0.417000       1.00800           0
     23457 TIP3     383      TIP3     OH2      OT      -0.834000       15.9994           0
     23458 TIP3     383      TIP3     H1       HT       0.417000       1.00800           0
     23459 TIP3     383      TIP3     H2       HT       0.417000       1.00800           0
     23460 TIP3     384      TIP3     OH2      OT      -0.834000       15.9994           0
     23461 TIP3     384      TIP3     H1       HT       0.417000       1.00800           0
     23462 TIP3     384      TIP3     H2       HT       0.417000       1.00800           0
     23463 TIP3     385      TIP3     OH2      OT      -0.834000       15.9994           0
     23464 TIP3     385      TIP3     H1       HT       0.417000       1.00800           0
     23465 TIP3     385      TIP3     H2       HT       0.417000       1.00800           0
     23466 TIP3     386      TIP3     OH2      OT      -0.834000       15.9994           0
     23467 TIP3     386      TIP3     H1       HT       0.417000       1.00800           0
     23468 TIP3     386      TIP3     H2       HT       0.417000       1.00800           0
     23469 TIP3     387      TIP3     OH2      OT      -0.834000       15.9994           0
     23470 TIP3     387      TIP3     H1       HT       0.417000       1.00800           0
     23471 TIP3     387      TIP3     H2       HT       0.417000       1.00800           0
     23472 TIP3     388      TIP3     OH2      OT      -0.834000       15.9994           0
     23473 TIP3     388      TIP3     H1       HT       0.417000       1.00800           0
     23474 TIP3     388      TIP3     H2       HT       0.417000       1.00800           0
     23475 TIP3     389      TIP3     OH2      OT      -0.834000       15.9994           0
     23476 TIP3     389      TIP3     H1       HT       0.417000       1.00800           0
     23477 TIP3     389      TIP3     H2       HT       0.417000       1.00800           0
     23478 TIP3     390      TIP3     OH2      OT      -0.834000       15.9994           0
     23479 TIP3     390      TIP3     H1       HT       0.417000       1.00800           0
     23480 TIP3     390      TIP3     H2       HT       0.417000       1.00800           0
     23481 TIP3     391      TIP3     OH2      OT      -0.834000       15.9994           0
     23482 TIP3     391      TIP3     H1       HT       0.417000       1.00800           0
     23483 TIP3     391      TIP3     H2       HT       0.417000       1.00800           0
     23484 TIP3     392      TIP3     OH2      OT      -0.834000       15.9994           0
     23485 TIP3     392      TIP3     H1       HT       0.417000       1.00800           0
     23486 TIP3     392      TIP3     H2       HT       0.417000       1.00800           0
     23487 TIP3     393      TIP3     OH2      OT      -0.834000       15.9994           0
     23488 TIP3     393      TIP3     H1       HT       0.417000       1.00800           0
     23489 TIP3     393      TIP3     H2       HT       0.417000       1.00800           0
     23490 TIP3     394      TIP3     OH2      OT      -0.834000       15.9994           0
     23491 TIP3     394      TIP3     H1       HT       0.417000       1.00800           0
     23492 TIP3     394      TIP3     H2       HT       0.417000       1.00800           0
     23493 TIP3     395      TIP3     OH2      OT      -0.834000       15.9994           0
     23494 TIP3     395      TIP3     H1       HT       0.417000       1.00800           0
     23495 TIP3     395      TIP3     H2       HT       0.417000       1.00800           0
     23496 TIP3     396      TIP3     OH2      OT      -0.834000       15.9994           0
     23497 TIP3     396      TIP3     H1       HT       0.417000       1.00800           0
     23498 TIP3     396      TIP3     H2       HT       0.417000       1.00800           0
     23499 TIP3     397      TIP3     OH2      OT      -0.834000       15.9994           0
     23500 TIP3     397      TIP3     H1       HT       0.417000       1.00800           0
     23501 TIP3     397      TIP3     H2       HT       0.417000       1.00800           0
     23502 TIP3     398      TIP3     OH2      OT      -0.834000       15.9994           0
     23503 TIP3     398      TIP3     H1       HT       0.417000       1.00800           0
     23504 TIP3     398      TIP3     H2       HT       0.417000       1.00800           0
     23505 TIP3     399      TIP3     OH2      OT      -0.834000       15.9994           0
     23506 TIP3     399      TIP3     H1       HT       0.417000       1.00800           0
     23507 TIP3     399      TIP3     H2       HT       0.417000       1.00800           0
     23508 TIP3     400      TIP3     OH2      OT      -0.834000       15.9994           0
     23509 TIP3     400      TIP3     H1       HT       0.417000       1.00800           0
     23510 TIP3     400      TIP3     H2       HT       0.417000       1.00800           0
     23511 TIP3     401      TIP3     OH2      OT      -0.834000       15.9994           0
     23512 TIP3     401      TIP3     H1       HT       0.417000       1.00800           0
     23513 TIP3     401      TIP3     H2       HT       0.417000       1.00800           0
     23514 TIP3     402      TIP3     OH2      OT      -0.834000       15.9994           0
     23515 TIP3     402      TIP3     H1       HT       0.417000       1.00800           0
     23516 TIP3     402      TIP3     H2       HT       0.417000       1.00800           0
     23517 TIP3     403      TIP3     OH2      OT      -0.834000       15.9994           0
     23518 TIP3     403      TIP3     H1       HT       0.417000       1.00800           0
     23519 TIP3     403      TIP3     H2       HT       0.417000       1.00800           0
     23520 TIP3     404      TIP3     OH2      OT      -0.834000       15.9994           0
     23521 TIP3     404      TIP3     H1       HT       0.417000       1.00800           0
     23522 TIP3     404      TIP3     H2       HT       0.417000       1.00800           0
     23523 TIP3     405      TIP3     OH2      OT      -0.834000       15.9994           0
     23524 TIP3     405      TIP3     H1       HT       0.417000       1.00800           0
     23525 TIP3     405      TIP3     H2       HT       0.417000       1.00800           0
     23526 TIP3     406      TIP3     OH2      OT      -0.834000       15.9994           0
     23527 TIP3     406      TIP3     H1       HT       0.417000       1.00800           0
     23528 TIP3     406      TIP3     H2       HT       0.417000       1.00800           0
     23529 TIP3     407      TIP3     OH2      OT      -0.834000       15.9994           0
     23530 TIP3     407      TIP3     H1       HT       0.417000       1.00800           0
     23531 TIP3     407      TIP3     H2       HT       0.417000       1.00800           0
     23532 TIP3     408      TIP3     OH2      OT      -0.834000       15.9994           0
     23533 TIP3     408      TIP3     H1       HT       0.417000       1.00800           0
     23534 TIP3     408      TIP3     H2       HT       0.417000       1.00800           0
     23535 TIP3     409      TIP3     OH2      OT      -0.834000       15.9994           0
     23536 TIP3     409      TIP3     H1       HT       0.417000       1.00800           0
     23537 TIP3     409      TIP3     H2       HT       0.417000       1.00800           0
     23538 TIP3     410      TIP3     OH2      OT      -0.834000       15.9994           0
     23539 TIP3     410      TIP3     H1       HT       0.417000       1.00800           0
     23540 TIP3     410      TIP3     H2       HT       0.417000       1.00800           0
     23541 TIP3     411      TIP3     OH2      OT      -0.834000       15.9994           0
     23542 TIP3     411      TIP3     H1       HT       0.417000       1.00800           0
     23543 TIP3     411      TIP3     H2       HT       0.417000       1.00800           0
     23544 TIP3     412      TIP3     OH2      OT      -0.834000       15.9994           0
     23545 TIP3     412      TIP3     H1       HT       0.417000       1.00800           0
     23546 TIP3     412      TIP3     H2       HT       0.417000       1.00800           0
     23547 TIP3     413      TIP3     OH2      OT      -0.834000       15.9994           0
     23548 TIP3     413      TIP3     H1       HT       0.417000       1.00800           0
     23549 TIP3     413      TIP3     H2       HT       0.417000       1.00800           0
     23550 TIP3     414      TIP3     OH2      OT      -0.834000       15.9994           0
     23551 TIP3     414      TIP3     H1       HT       0.417000       1.00800           0
     23552 TIP3     414      TIP3     H2       HT       0.417000       1.00800           0
     23553 TIP3     415      TIP3     OH2      OT      -0.834000       15.9994           0
     23554 TIP3     415      TIP3     H1       HT       0.417000       1.00800           0
     23555 TIP3     415      TIP3     H2       HT       0.417000       1.00800           0
     23556 TIP3     416      TIP3     OH2      OT      -0.834000       15.9994           0
     23557 TIP3     416      TIP3     H1       HT       0.417000       1.00800           0
     23558 TIP3     416      TIP3     H2       HT       0.417000       1.00800           0
     23559 TIP3     417      TIP3     OH2      OT      -0.834000       15.9994           0
     23560 TIP3     417      TIP3     H1       HT       0.417000       1.00800           0
     23561 TIP3     417      TIP3     H2       HT       0.417000       1.00800           0
     23562 TIP3     418      TIP3     OH2      OT      -0.834000       15.9994           0
     23563 TIP3     418      TIP3     H1       HT       0.417000       1.00800           0
     23564 TIP3     418      TIP3     H2       HT       0.417000       1.00800           0
     23565 TIP3     419      TIP3     OH2      OT      -0.834000       15.9994           0
     23566 TIP3     419      TIP3     H1       HT       0.417000       1.00800           0
     23567 TIP3     419      TIP3     H2       HT       0.417000       1.00800           0
     23568 TIP3     420      TIP3     OH2      OT      -0.834000       15.9994           0
     23569 TIP3     420      TIP3     H1       HT       0.417000       1.00800           0
     23570 TIP3     420      TIP3     H2       HT       0.417000       1.00800           0
     23571 TIP3     421      TIP3     OH2      OT      -0.834000       15.9994           0
     23572 TIP3     421      TIP3     H1       HT       0.417000       1.00800           0
     23573 TIP3     421      TIP3     H2       HT       0.417000       1.00800           0
     23574 TIP3     422      TIP3     OH2      OT      -0.834000       15.9994           0
     23575 TIP3     422      TIP3     H1       HT       0.417000       1.00800           0
     23576 TIP3     422      TIP3     H2       HT       0.417000       1.00800           0
     23577 TIP3     423      TIP3     OH2      OT      -0.834000       15.9994           0
     23578 TIP3     423      TIP3     H1       HT       0.417000       1.00800           0
     23579 TIP3     423      TIP3     H2       HT       0.417000       1.00800           0
     23580 TIP3     424      TIP3     OH2      OT      -0.834000       15.9994           0
     23581 TIP3     424      TIP3     H1       HT       0.417000       1.00800           0
     23582 TIP3     424      TIP3     H2       HT       0.417000       1.00800           0
     23583 TIP3     425      TIP3     OH2      OT      -0.834000       15.9994           0
     23584 TIP3     425      TIP3     H1       HT       0.417000       1.00800           0
     23585 TIP3     425      TIP3     H2       HT       0.417000       1.00800           0
     23586 TIP3     426      TIP3     OH2      OT      -0.834000       15.9994           0
     23587 TIP3     426      TIP3     H1       HT       0.417000       1.00800           0
     23588 TIP3     426      TIP3     H2       HT       0.417000       1.00800           0
     23589 TIP3     427      TIP3     OH2      OT      -0.834000       15.9994           0
     23590 TIP3     427      TIP3     H1       HT       0.417000       1.00800           0
     23591 TIP3     427      TIP3     H2       HT       0.417000       1.00800           0
     23592 TIP3     428      TIP3     OH2      OT      -0.834000       15.9994           0
     23593 TIP3     428      TIP3     H1       HT       0.417000       1.00800           0
     23594 TIP3     428      TIP3     H2       HT       0.417000       1.00800           0
     23595 TIP3     429      TIP3     OH2      OT      -0.834000       15.9994           0
     23596 TIP3     429      TIP3     H1       HT       0.417000       1.00800           0
     23597 TIP3     429      TIP3     H2       HT       0.417000       1.00800           0
     23598 TIP3     430      TIP3     OH2      OT      -0.834000       15.9994           0
     23599 TIP3     430      TIP3     H1       HT       0.417000       1.00800           0
     23600 TIP3     430      TIP3     H2       HT       0.417000       1.00800           0
     23601 TIP3     431      TIP3     OH2      OT      -0.834000       15.9994           0
     23602 TIP3     431      TIP3     H1       HT       0.417000       1.00800           0
     23603 TIP3     431      TIP3     H2       HT       0.417000       1.00800           0
     23604 TIP3     432      TIP3     OH2      OT      -0.834000       15.9994           0
     23605 TIP3     432      TIP3     H1       HT       0.417000       1.00800           0
     23606 TIP3     432      TIP3     H2       HT       0.417000       1.00800           0
     23607 TIP3     433      TIP3     OH2      OT      -0.834000       15.9994           0
     23608 TIP3     433      TIP3     H1       HT       0.417000       1.00800           0
     23609 TIP3     433      TIP3     H2       HT       0.417000       1.00800           0
     23610 TIP3     434      TIP3     OH2      OT      -0.834000       15.9994           0
     23611 TIP3     434      TIP3     H1       HT       0.417000       1.00800           0
     23612 TIP3     434      TIP3     H2       HT       0.417000       1.00800           0
     23613 TIP3     435      TIP3     OH2      OT      -0.834000       15.9994           0
     23614 TIP3     435      TIP3     H1       HT       0.417000       1.00800           0
     23615 TIP3     435      TIP3     H2       HT       0.417000       1.00800           0
     23616 TIP3     436      TIP3     OH2      OT      -0.834000       15.9994           0
     23617 TIP3     436      TIP3     H1       HT       0.417000       1.00800           0
     23618 TIP3     436      TIP3     H2       HT       0.417000       1.00800           0
     23619 TIP3     437      TIP3     OH2      OT      -0.834000       15.9994           0
     23620 TIP3     437      TIP3     H1       HT       0.417000       1.00800           0
     23621 TIP3     437      TIP3     H2       HT       0.417000       1.00800           0
     23622 TIP3     438      TIP3     OH2      OT      -0.834000       15.9994           0
     23623 TIP3     438      TIP3     H1       HT       0.417000       1.00800           0
     23624 TIP3     438      TIP3     H2       HT       0.417000       1.00800           0
     23625 TIP3     439      TIP3     OH2      OT      -0.834000       15.9994           0
     23626 TIP3     439      TIP3     H1       HT       0.417000       1.00800           0
     23627 TIP3     439      TIP3     H2       HT       0.417000       1.00800           0
     23628 TIP3     440      TIP3     OH2      OT      -0.834000       15.9994           0
     23629 TIP3     440      TIP3     H1       HT       0.417000       1.00800           0
     23630 TIP3     440      TIP3     H2       HT       0.417000       1.00800           0
     23631 TIP3     441      TIP3     OH2      OT      -0.834000       15.9994           0
     23632 TIP3     441      TIP3     H1       HT       0.417000       1.00800           0
     23633 TIP3     441      TIP3     H2       HT       0.417000       1.00800           0
     23634 TIP3     442      TIP3     OH2      OT      -0.834000       15.9994           0
     23635 TIP3     442      TIP3     H1       HT       0.417000       1.00800           0
     23636 TIP3     442      TIP3     H2       HT       0.417000       1.00800           0
     23637 TIP3     443      TIP3     OH2      OT      -0.834000       15.9994           0
     23638 TIP3     443      TIP3     H1       HT       0.417000       1.00800           0
     23639 TIP3     443      TIP3     H2       HT       0.417000       1.00800           0
     23640 TIP3     444      TIP3     OH2      OT      -0.834000       15.9994           0
     23641 TIP3     444      TIP3     H1       HT       0.417000       1.00800           0
     23642 TIP3     444      TIP3     H2       HT       0.417000       1.00800           0
     23643 TIP3     445      TIP3     OH2      OT      -0.834000       15.9994           0
     23644 TIP3     445      TIP3     H1       HT       0.417000       1.00800           0
     23645 TIP3     445      TIP3     H2       HT       0.417000       1.00800           0
     23646 TIP3     446      TIP3     OH2      OT      -0.834000       15.9994           0
     23647 TIP3     446      TIP3     H1       HT       0.417000       1.00800           0
     23648 TIP3     446      TIP3     H2       HT       0.417000       1.00800           0
     23649 TIP3     447      TIP3     OH2      OT      -0.834000       15.9994           0
     23650 TIP3     447      TIP3     H1       HT       0.417000       1.00800           0
     23651 TIP3     447      TIP3     H2       HT       0.417000       1.00800           0
     23652 TIP3     448      TIP3     OH2      OT      -0.834000       15.9994           0
     23653 TIP3     448      TIP3     H1       HT       0.417000       1.00800           0
     23654 TIP3     448      TIP3     H2       HT       0.417000       1.00800           0
     23655 TIP3     449      TIP3     OH2      OT      -0.834000       15.9994           0
     23656 TIP3     449      TIP3     H1       HT       0.417000       1.00800           0
     23657 TIP3     449      TIP3     H2       HT       0.417000       1.00800           0
     23658 TIP3     450      TIP3     OH2      OT      -0.834000       15.9994           0
     23659 TIP3     450      TIP3     H1       HT       0.417000       1.00800           0
     23660 TIP3     450      TIP3     H2       HT       0.417000       1.00800           0
     23661 TIP3     451      TIP3     OH2      OT      -0.834000       15.9994           0
     23662 TIP3     451      TIP3     H1       HT       0.417000       1.00800           0
     23663 TIP3     451      TIP3     H2       HT       0.417000       1.00800           0
     23664 TIP3     452      TIP3     OH2      OT      -0.834000       15.9994           0
     23665 TIP3     452      TIP3     H1       HT       0.417000       1.00800           0
     23666 TIP3     452      TIP3     H2       HT       0.417000       1.00800           0
     23667 TIP3     453      TIP3     OH2      OT      -0.834000       15.9994           0
     23668 TIP3     453      TIP3     H1       HT       0.417000       1.00800           0
     23669 TIP3     453      TIP3     H2       HT       0.417000       1.00800           0
     23670 TIP3     454      TIP3     OH2      OT      -0.834000       15.9994           0
     23671 TIP3     454      TIP3     H1       HT       0.417000       1.00800           0
     23672 TIP3     454      TIP3     H2       HT       0.417000       1.00800           0
     23673 TIP3     455      TIP3     OH2      OT      -0.834000       15.9994           0
     23674 TIP3     455      TIP3     H1       HT       0.417000       1.00800           0
     23675 TIP3     455      TIP3     H2       HT       0.417000       1.00800           0
     23676 TIP3     456      TIP3     OH2      OT      -0.834000       15.9994           0
     23677 TIP3     456      TIP3     H1       HT       0.417000       1.00800           0
     23678 TIP3     456      TIP3     H2       HT       0.417000       1.00800           0
     23679 TIP3     457      TIP3     OH2      OT      -0.834000       15.9994           0
     23680 TIP3     457      TIP3     H1       HT       0.417000       1.00800           0
     23681 TIP3     457      TIP3     H2       HT       0.417000       1.00800           0
     23682 TIP3     458      TIP3     OH2      OT      -0.834000       15.9994           0
     23683 TIP3     458      TIP3     H1       HT       0.417000       1.00800           0
     23684 TIP3     458      TIP3     H2       HT       0.417000       1.00800           0
     23685 TIP3     459      TIP3     OH2      OT      -0.834000       15.9994           0
     23686 TIP3     459      TIP3     H1       HT       0.417000       1.00800           0
     23687 TIP3     459      TIP3     H2       HT       0.417000       1.00800           0
     23688 TIP3     460      TIP3     OH2      OT      -0.834000       15.9994           0
     23689 TIP3     460      TIP3     H1       HT       0.417000       1.00800           0
     23690 TIP3     460      TIP3     H2       HT       0.417000       1.00800           0
     23691 TIP3     461      TIP3     OH2      OT      -0.834000       15.9994           0
     23692 TIP3     461      TIP3     H1       HT       0.417000       1.00800           0
     23693 TIP3     461      TIP3     H2       HT       0.417000       1.00800           0
     23694 TIP3     462      TIP3     OH2      OT      -0.834000       15.9994           0
     23695 TIP3     462      TIP3     H1       HT       0.417000       1.00800           0
     23696 TIP3     462      TIP3     H2       HT       0.417000       1.00800           0
     23697 TIP3     463      TIP3     OH2      OT      -0.834000       15.9994           0
     23698 TIP3     463      TIP3     H1       HT       0.417000       1.00800           0
     23699 TIP3     463      TIP3     H2       HT       0.417000       1.00800           0
     23700 TIP3     464      TIP3     OH2      OT      -0.834000       15.9994           0
     23701 TIP3     464      TIP3     H1       HT       0.417000       1.00800           0
     23702 TIP3     464      TIP3     H2       HT       0.417000       1.00800           0
     23703 TIP3     465      TIP3     OH2      OT      -0.834000       15.9994           0
     23704 TIP3     465      TIP3     H1       HT       0.417000       1.00800           0
     23705 TIP3     465      TIP3     H2       HT       0.417000       1.00800           0
     23706 TIP3     466      TIP3     OH2      OT      -0.834000       15.9994           0
     23707 TIP3     466      TIP3     H1       HT       0.417000       1.00800           0
     23708 TIP3     466      TIP3     H2       HT       0.417000       1.00800           0
     23709 TIP3     467      TIP3     OH2      OT      -0.834000       15.9994           0
     23710 TIP3     467      TIP3     H1       HT       0.417000       1.00800           0
     23711 TIP3     467      TIP3     H2       HT       0.417000       1.00800           0
     23712 TIP3     468      TIP3     OH2      OT      -0.834000       15.9994           0
     23713 TIP3     468      TIP3     H1       HT       0.417000       1.00800           0
     23714 TIP3     468      TIP3     H2       HT       0.417000       1.00800           0
     23715 TIP3     469      TIP3     OH2      OT      -0.834000       15.9994           0
     23716 TIP3     469      TIP3     H1       HT       0.417000       1.00800           0
     23717 TIP3     469      TIP3     H2       HT       0.417000       1.00800           0
     23718 TIP3     470      TIP3     OH2      OT      -0.834000       15.9994           0
     23719 TIP3     470      TIP3     H1       HT       0.417000       1.00800           0
     23720 TIP3     470      TIP3     H2       HT       0.417000       1.00800           0
     23721 TIP3     471      TIP3     OH2      OT      -0.834000       15.9994           0
     23722 TIP3     471      TIP3     H1       HT       0.417000       1.00800           0
     23723 TIP3     471      TIP3     H2       HT       0.417000       1.00800           0
     23724 TIP3     472      TIP3     OH2      OT      -0.834000       15.9994           0
     23725 TIP3     472      TIP3     H1       HT       0.417000       1.00800           0
     23726 TIP3     472      TIP3     H2       HT       0.417000       1.00800           0
     23727 TIP3     473      TIP3     OH2      OT      -0.834000       15.9994           0
     23728 TIP3     473      TIP3     H1       HT       0.417000       1.00800           0
     23729 TIP3     473      TIP3     H2       HT       0.417000       1.00800           0
     23730 TIP3     474      TIP3     OH2      OT      -0.834000       15.9994           0
     23731 TIP3     474      TIP3     H1       HT       0.417000       1.00800           0
     23732 TIP3     474      TIP3     H2       HT       0.417000       1.00800           0
     23733 TIP3     475      TIP3     OH2      OT      -0.834000       15.9994           0
     23734 TIP3     475      TIP3     H1       HT       0.417000       1.00800           0
     23735 TIP3     475      TIP3     H2       HT       0.417000       1.00800           0
     23736 TIP3     476      TIP3     OH2      OT      -0.834000       15.9994           0
     23737 TIP3     476      TIP3     H1       HT       0.417000       1.00800           0
     23738 TIP3     476      TIP3     H2       HT       0.417000       1.00800           0
     23739 TIP3     477      TIP3     OH2      OT      -0.834000       15.9994           0
     23740 TIP3     477      TIP3     H1       HT       0.417000       1.00800           0
     23741 TIP3     477      TIP3     H2       HT       0.417000       1.00800           0
     23742 TIP3     478      TIP3     OH2      OT      -0.834000       15.9994           0
     23743 TIP3     478      TIP3     H1       HT       0.417000       1.00800           0
     23744 TIP3     478      TIP3     H2       HT       0.417000       1.00800           0
     23745 TIP3     479      TIP3     OH2      OT      -0.834000       15.9994           0
     23746 TIP3     479      TIP3     H1       HT       0.417000       1.00800           0
     23747 TIP3     479      TIP3     H2       HT       0.417000       1.00800           0
     23748 TIP3     480      TIP3     OH2      OT      -0.834000       15.9994           0
     23749 TIP3     480      TIP3     H1       HT       0.417000       1.00800           0
     23750 TIP3     480      TIP3     H2       HT       0.417000       1.00800           0
     23751 TIP3     481      TIP3     OH2      OT      -0.834000       15.9994           0
     23752 TIP3     481      TIP3     H1       HT       0.417000       1.00800           0
     23753 TIP3     481      TIP3     H2       HT       0.417000       1.00800           0
     23754 TIP3     482      TIP3     OH2      OT      -0.834000       15.9994           0
     23755 TIP3     482      TIP3     H1       HT       0.417000       1.00800           0
     23756 TIP3     482      TIP3     H2       HT       0.417000       1.00800           0
     23757 TIP3     483      TIP3     OH2      OT      -0.834000       15.9994           0
     23758 TIP3     483      TIP3     H1       HT       0.417000       1.00800           0
     23759 TIP3     483      TIP3     H2       HT       0.417000       1.00800           0
     23760 TIP3     484      TIP3     OH2      OT      -0.834000       15.9994           0
     23761 TIP3     484      TIP3     H1       HT       0.417000       1.00800           0
     23762 TIP3     484      TIP3     H2       HT       0.417000       1.00800           0
     23763 TIP3     485      TIP3     OH2      OT      -0.834000       15.9994           0
     23764 TIP3     485      TIP3     H1       HT       0.417000       1.00800           0
     23765 TIP3     485      TIP3     H2       HT       0.417000       1.00800           0
     23766 TIP3     486      TIP3     OH2      OT      -0.834000       15.9994           0
     23767 TIP3     486      TIP3     H1       HT       0.417000       1.00800           0
     23768 TIP3     486      TIP3     H2       HT       0.417000       1.00800           0
     23769 TIP3     487      TIP3     OH2      OT      -0.834000       15.9994           0
     23770 TIP3     487      TIP3     H1       HT       0.417000       1.00800           0
     23771 TIP3     487      TIP3     H2       HT       0.417000       1.00800           0
     23772 TIP3     488      TIP3     OH2      OT      -0.834000       15.9994           0
     23773 TIP3     488      TIP3     H1       HT       0.417000       1.00800           0
     23774 TIP3     488      TIP3     H2       HT       0.417000       1.00800           0
     23775 TIP3     489      TIP3     OH2      OT      -0.834000       15.9994           0
     23776 TIP3     489      TIP3     H1       HT       0.417000       1.00800           0
     23777 TIP3     489      TIP3     H2       HT       0.417000       1.00800           0
     23778 TIP3     490      TIP3     OH2      OT      -0.834000       15.9994           0
     23779 TIP3     490      TIP3     H1       HT       0.417000       1.00800           0
     23780 TIP3     490      TIP3     H2       HT       0.417000       1.00800           0
     23781 TIP3     491      TIP3     OH2      OT      -0.834000       15.9994           0
     23782 TIP3     491      TIP3     H1       HT       0.417000       1.00800           0
     23783 TIP3     491      TIP3     H2       HT       0.417000       1.00800           0
     23784 TIP3     492      TIP3     OH2      OT      -0.834000       15.9994           0
     23785 TIP3     492      TIP3     H1       HT       0.417000       1.00800           0
     23786 TIP3     492      TIP3     H2       HT       0.417000       1.00800           0
     23787 TIP3     493      TIP3     OH2      OT      -0.834000       15.9994           0
     23788 TIP3     493      TIP3     H1       HT       0.417000       1.00800           0
     23789 TIP3     493      TIP3     H2       HT       0.417000       1.00800           0
     23790 TIP3     494      TIP3     OH2      OT      -0.834000       15.9994           0
     23791 TIP3     494      TIP3     H1       HT       0.417000       1.00800           0
     23792 TIP3     494      TIP3     H2       HT       0.417000       1.00800           0
     23793 TIP3     495      TIP3     OH2      OT      -0.834000       15.9994           0
     23794 TIP3     495      TIP3     H1       HT       0.417000       1.00800           0
     23795 TIP3     495      TIP3     H2       HT       0.417000       1.00800           0
     23796 TIP3     496      TIP3     OH2      OT      -0.834000       15.9994           0
     23797 TIP3     496      TIP3     H1       HT       0.417000       1.00800           0
     23798 TIP3     496      TIP3     H2       HT       0.417000       1.00800           0
     23799 TIP3     497      TIP3     OH2      OT      -0.834000       15.9994           0
     23800 TIP3     497      TIP3     H1       HT       0.417000       1.00800           0
     23801 TIP3     497      TIP3     H2       HT       0.417000       1.00800           0
     23802 TIP3     498      TIP3     OH2      OT      -0.834000       15.9994           0
     23803 TIP3     498      TIP3     H1       HT       0.417000       1.00800           0
     23804 TIP3     498      TIP3     H2       HT       0.417000       1.00800           0
     23805 TIP3     499      TIP3     OH2      OT      -0.834000       15.9994           0
     23806 TIP3     499      TIP3     H1       HT       0.417000       1.00800           0
     23807 TIP3     499      TIP3     H2       HT       0.417000       1.00800           0
     23808 TIP3     500      TIP3     OH2      OT      -0.834000       15.9994           0
     23809 TIP3     500      TIP3     H1       HT       0.417000       1.00800           0
     23810 TIP3     500      TIP3     H2       HT       0.417000       1.00800           0
     23811 TIP3     501      TIP3     OH2      OT      -0.834000       15.9994           0
     23812 TIP3     501      TIP3     H1       HT       0.417000       1.00800           0
     23813 TIP3     501      TIP3     H2       HT       0.417000       1.00800           0
     23814 TIP3     502      TIP3     OH2      OT      -0.834000       15.9994           0
     23815 TIP3     502      TIP3     H1       HT       0.417000       1.00800           0
     23816 TIP3     502      TIP3     H2       HT       0.417000       1.00800           0
     23817 TIP3     503      TIP3     OH2      OT      -0.834000       15.9994           0
     23818 TIP3     503      TIP3     H1       HT       0.417000       1.00800           0
     23819 TIP3     503      TIP3     H2       HT       0.417000       1.00800           0
     23820 TIP3     504      TIP3     OH2      OT      -0.834000       15.9994           0
     23821 TIP3     504      TIP3     H1       HT       0.417000       1.00800           0
     23822 TIP3     504      TIP3     H2       HT       0.417000       1.00800           0
     23823 TIP3     505      TIP3     OH2      OT      -0.834000       15.9994           0
     23824 TIP3     505      TIP3     H1       HT       0.417000       1.00800           0
     23825 TIP3     505      TIP3     H2       HT       0.417000       1.00800           0
     23826 TIP3     506      TIP3     OH2      OT      -0.834000       15.9994           0
     23827 TIP3     506      TIP3     H1       HT       0.417000       1.00800           0
     23828 TIP3     506      TIP3     H2       HT       0.417000       1.00800           0
     23829 TIP3     507      TIP3     OH2      OT      -0.834000       15.9994           0
     23830 TIP3     507      TIP3     H1       HT       0.417000       1.00800           0
     23831 TIP3     507      TIP3     H2       HT       0.417000       1.00800           0
     23832 TIP3     508      TIP3     OH2      OT      -0.834000       15.9994           0
     23833 TIP3     508      TIP3     H1       HT       0.417000       1.00800           0
     23834 TIP3     508      TIP3     H2       HT       0.417000       1.00800           0
     23835 TIP3     509      TIP3     OH2      OT      -0.834000       15.9994           0
     23836 TIP3     509      TIP3     H1       HT       0.417000       1.00800           0
     23837 TIP3     509      TIP3     H2       HT       0.417000       1.00800           0
     23838 TIP3     510      TIP3     OH2      OT      -0.834000       15.9994           0
     23839 TIP3     510      TIP3     H1       HT       0.417000       1.00800           0
     23840 TIP3     510      TIP3     H2       HT       0.417000       1.00800           0
     23841 TIP3     511      TIP3     OH2      OT      -0.834000       15.9994           0
     23842 TIP3     511      TIP3     H1       HT       0.417000       1.00800           0
     23843 TIP3     511      TIP3     H2       HT       0.417000       1.00800           0
     23844 TIP3     512      TIP3     OH2      OT      -0.834000       15.9994           0
     23845 TIP3     512      TIP3     H1       HT       0.417000       1.00800           0
     23846 TIP3     512      TIP3     H2       HT       0.417000       1.00800           0
     23847 TIP3     513      TIP3     OH2      OT      -0.834000       15.9994           0
     23848 TIP3     513      TIP3     H1       HT       0.417000       1.00800           0
     23849 TIP3     513      TIP3     H2       HT       0.417000       1.00800           0
     23850 TIP3     514      TIP3     OH2      OT      -0.834000       15.9994           0
     23851 TIP3     514      TIP3     H1       HT       0.417000       1.00800           0
     23852 TIP3     514      TIP3     H2       HT       0.417000       1.00800           0
     23853 TIP3     515      TIP3     OH2      OT      -0.834000       15.9994           0
     23854 TIP3     515      TIP3     H1       HT       0.417000       1.00800           0
     23855 TIP3     515      TIP3     H2       HT       0.417000       1.00800           0
     23856 TIP3     516      TIP3     OH2      OT      -0.834000       15.9994           0
     23857 TIP3     516      TIP3     H1       HT       0.417000       1.00800           0
     23858 TIP3     516      TIP3     H2       HT       0.417000       1.00800           0
     23859 TIP3     517      TIP3     OH2      OT      -0.834000       15.9994           0
     23860 TIP3     517      TIP3     H1       HT       0.417000       1.00800           0
     23861 TIP3     517      TIP3     H2       HT       0.417000       1.00800           0
     23862 TIP3     518      TIP3     OH2      OT      -0.834000       15.9994           0
     23863 TIP3     518      TIP3     H1       HT       0.417000       1.00800           0
     23864 TIP3     518      TIP3     H2       HT       0.417000       1.00800           0
     23865 TIP3     519      TIP3     OH2      OT      -0.834000       15.9994           0
     23866 TIP3     519      TIP3     H1       HT       0.417000       1.00800           0
     23867 TIP3     519      TIP3     H2       HT       0.417000       1.00800           0
     23868 TIP3     520      TIP3     OH2      OT      -0.834000       15.9994           0
     23869 TIP3     520      TIP3     H1       HT       0.417000       1.00800           0
     23870 TIP3     520      TIP3     H2       HT       0.417000       1.00800           0
     23871 TIP3     521      TIP3     OH2      OT      -0.834000       15.9994           0
     23872 TIP3     521      TIP3     H1       HT       0.417000       1.00800           0
     23873 TIP3     521      TIP3     H2       HT       0.417000       1.00800           0
     23874 TIP3     522      TIP3     OH2      OT      -0.834000       15.9994           0
     23875 TIP3     522      TIP3     H1       HT       0.417000       1.00800           0
     23876 TIP3     522      TIP3     H2       HT       0.417000       1.00800           0
     23877 TIP3     523      TIP3     OH2      OT      -0.834000       15.9994           0
     23878 TIP3     523      TIP3     H1       HT       0.417000       1.00800           0
     23879 TIP3     523      TIP3     H2       HT       0.417000       1.00800           0
     23880 TIP3     524      TIP3     OH2      OT      -0.834000       15.9994           0
     23881 TIP3     524      TIP3     H1       HT       0.417000       1.00800           0
     23882 TIP3     524      TIP3     H2       HT       0.417000       1.00800           0
     23883 TIP3     525      TIP3     OH2      OT      -0.834000       15.9994           0
     23884 TIP3     525      TIP3     H1       HT       0.417000       1.00800           0
     23885 TIP3     525      TIP3     H2       HT       0.417000       1.00800           0
     23886 TIP3     526      TIP3     OH2      OT      -0.834000       15.9994           0
     23887 TIP3     526      TIP3     H1       HT       0.417000       1.00800           0
     23888 TIP3     526      TIP3     H2       HT       0.417000       1.00800           0
     23889 TIP3     527      TIP3     OH2      OT      -0.834000       15.9994           0
     23890 TIP3     527      TIP3     H1       HT       0.417000       1.00800           0
     23891 TIP3     527      TIP3     H2       HT       0.417000       1.00800           0
     23892 TIP3     528      TIP3     OH2      OT      -0.834000       15.9994           0
     23893 TIP3     528      TIP3     H1       HT       0.417000       1.00800           0
     23894 TIP3     528      TIP3     H2       HT       0.417000       1.00800           0
     23895 TIP3     529      TIP3     OH2      OT      -0.834000       15.9994           0
     23896 TIP3     529      TIP3     H1       HT       0.417000       1.00800           0
     23897 TIP3     529      TIP3     H2       HT       0.417000       1.00800           0
     23898 TIP3     530      TIP3     OH2      OT      -0.834000       15.9994           0
     23899 TIP3     530      TIP3     H1       HT       0.417000       1.00800           0
     23900 TIP3     530      TIP3     H2       HT       0.417000       1.00800           0
     23901 TIP3     531      TIP3     OH2      OT      -0.834000       15.9994           0
     23902 TIP3     531      TIP3     H1       HT       0.417000       1.00800           0
     23903 TIP3     531      TIP3     H2       HT       0.417000       1.00800           0
     23904 TIP3     532      TIP3     OH2      OT      -0.834000       15.9994           0
     23905 TIP3     532      TIP3     H1       HT       0.417000       1.00800           0
     23906 TIP3     532      TIP3     H2       HT       0.417000       1.00800           0
     23907 TIP3     533      TIP3     OH2      OT      -0.834000       15.9994           0
     23908 TIP3     533      TIP3     H1       HT       0.417000       1.00800           0
     23909 TIP3     533      TIP3     H2       HT       0.417000       1.00800           0
     23910 TIP3     534      TIP3     OH2      OT      -0.834000       15.9994           0
     23911 TIP3     534      TIP3     H1       HT       0.417000       1.00800           0
     23912 TIP3     534      TIP3     H2       HT       0.417000       1.00800           0
     23913 TIP3     535      TIP3     OH2      OT      -0.834000       15.9994           0
     23914 TIP3     535      TIP3     H1       HT       0.417000       1.00800           0
     23915 TIP3     535      TIP3     H2       HT       0.417000       1.00800           0
     23916 TIP3     536      TIP3     OH2      OT      -0.834000       15.9994           0
     23917 TIP3     536      TIP3     H1       HT       0.417000       1.00800           0
     23918 TIP3     536      TIP3     H2       HT       0.417000       1.00800           0
     23919 TIP3     537      TIP3     OH2      OT      -0.834000       15.9994           0
     23920 TIP3     537      TIP3     H1       HT       0.417000       1.00800           0
     23921 TIP3     537      TIP3     H2       HT       0.417000       1.00800           0
     23922 TIP3     538      TIP3     OH2      OT      -0.834000       15.9994           0
     23923 TIP3     538      TIP3     H1       HT       0.417000       1.00800           0
     23924 TIP3     538      TIP3     H2       HT       0.417000       1.00800           0
     23925 TIP3     539      TIP3     OH2      OT      -0.834000       15.9994           0
     23926 TIP3     539      TIP3     H1       HT       0.417000       1.00800           0
     23927 TIP3     539      TIP3     H2       HT       0.417000       1.00800           0
     23928 TIP3     540      TIP3     OH2      OT      -0.834000       15.9994           0
     23929 TIP3     540      TIP3     H1       HT       0.417000       1.00800           0
     23930 TIP3     540      TIP3     H2       HT       0.417000       1.00800           0
     23931 TIP3     541      TIP3     OH2      OT      -0.834000       15.9994           0
     23932 TIP3     541      TIP3     H1       HT       0.417000       1.00800           0
     23933 TIP3     541      TIP3     H2       HT       0.417000       1.00800           0
     23934 TIP3     542      TIP3     OH2      OT      -0.834000       15.9994           0
     23935 TIP3     542      TIP3     H1       HT       0.417000       1.00800           0
     23936 TIP3     542      TIP3     H2       HT       0.417000       1.00800           0
     23937 TIP3     543      TIP3     OH2      OT      -0.834000       15.9994           0
     23938 TIP3     543      TIP3     H1       HT       0.417000       1.00800           0
     23939 TIP3     543      TIP3     H2       HT       0.417000       1.00800           0
     23940 TIP3     544      TIP3     OH2      OT      -0.834000       15.9994           0
     23941 TIP3     544      TIP3     H1       HT       0.417000       1.00800           0
     23942 TIP3     544      TIP3     H2       HT       0.417000       1.00800           0
     23943 TIP3     545      TIP3     OH2      OT      -0.834000       15.9994           0
     23944 TIP3     545      TIP3     H1       HT       0.417000       1.00800           0
     23945 TIP3     545      TIP3     H2       HT       0.417000       1.00800           0
     23946 TIP3     546      TIP3     OH2      OT      -0.834000       15.9994           0
     23947 TIP3     546      TIP3     H1       HT       0.417000       1.00800           0
     23948 TIP3     546      TIP3     H2       HT       0.417000       1.00800           0
     23949 TIP3     547      TIP3     OH2      OT      -0.834000       15.9994           0
     23950 TIP3     547      TIP3     H1       HT       0.417000       1.00800           0
     23951 TIP3     547      TIP3     H2       HT       0.417000       1.00800           0
     23952 TIP3     548      TIP3     OH2      OT      -0.834000       15.9994           0
     23953 TIP3     548      TIP3     H1       HT       0.417000       1.00800           0
     23954 TIP3     548      TIP3     H2       HT       0.417000       1.00800           0
     23955 TIP3     549      TIP3     OH2      OT      -0.834000       15.9994           0
     23956 TIP3     549      TIP3     H1       HT       0.417000       1.00800           0
     23957 TIP3     549      TIP3     H2       HT       0.417000       1.00800           0
     23958 TIP3     550      TIP3     OH2      OT      -0.834000       15.9994           0
     23959 TIP3     550      TIP3     H1       HT       0.417000       1.00800           0
     23960 TIP3     550      TIP3     H2       HT       0.417000       1.00800           0
     23961 TIP3     551      TIP3     OH2      OT      -0.834000       15.9994           0
     23962 TIP3     551      TIP3     H1       HT       0.417000       1.00800           0
     23963 TIP3     551      TIP3     H2       HT       0.417000       1.00800           0
     23964 TIP3     552      TIP3     OH2      OT      -0.834000       15.9994           0
     23965 TIP3     552      TIP3     H1       HT       0.417000       1.00800           0
     23966 TIP3     552      TIP3     H2       HT       0.417000       1.00800           0
     23967 TIP3     553      TIP3     OH2      OT      -0.834000       15.9994           0
     23968 TIP3     553      TIP3     H1       HT       0.417000       1.00800           0
     23969 TIP3     553      TIP3     H2       HT       0.417000       1.00800           0
     23970 TIP3     554      TIP3     OH2      OT      -0.834000       15.9994           0
     23971 TIP3     554      TIP3     H1       HT       0.417000       1.00800           0
     23972 TIP3     554      TIP3     H2       HT       0.417000       1.00800           0
     23973 TIP3     555      TIP3     OH2      OT      -0.834000       15.9994           0
     23974 TIP3     555      TIP3     H1       HT       0.417000       1.00800           0
     23975 TIP3     555      TIP3     H2       HT       0.417000       1.00800           0
     23976 TIP3     556      TIP3     OH2      OT      -0.834000       15.9994           0
     23977 TIP3     556      TIP3     H1       HT       0.417000       1.00800           0
     23978 TIP3     556      TIP3     H2       HT       0.417000       1.00800           0
     23979 TIP3     557      TIP3     OH2      OT      -0.834000       15.9994           0
     23980 TIP3     557      TIP3     H1       HT       0.417000       1.00800           0
     23981 TIP3     557      TIP3     H2       HT       0.417000       1.00800           0
     23982 TIP3     558      TIP3     OH2      OT      -0.834000       15.9994           0
     23983 TIP3     558      TIP3     H1       HT       0.417000       1.00800           0
     23984 TIP3     558      TIP3     H2       HT       0.417000       1.00800           0
     23985 TIP3     559      TIP3     OH2      OT      -0.834000       15.9994           0
     23986 TIP3     559      TIP3     H1       HT       0.417000       1.00800           0
     23987 TIP3     559      TIP3     H2       HT       0.417000       1.00800           0
     23988 TIP3     560      TIP3     OH2      OT      -0.834000       15.9994           0
     23989 TIP3     560      TIP3     H1       HT       0.417000       1.00800           0
     23990 TIP3     560      TIP3     H2       HT       0.417000       1.00800           0
     23991 TIP3     561      TIP3     OH2      OT      -0.834000       15.9994           0
     23992 TIP3     561      TIP3     H1       HT       0.417000       1.00800           0
     23993 TIP3     561      TIP3     H2       HT       0.417000       1.00800           0
     23994 TIP3     562      TIP3     OH2      OT      -0.834000       15.9994           0
     23995 TIP3     562      TIP3     H1       HT       0.417000       1.00800           0
     23996 TIP3     562      TIP3     H2       HT       0.417000       1.00800           0
     23997 TIP3     563      TIP3     OH2      OT      -0.834000       15.9994           0
     23998 TIP3     563      TIP3     H1       HT       0.417000       1.00800           0
     23999 TIP3     563      TIP3     H2       HT       0.417000       1.00800           0
     24000 TIP3     564      TIP3     OH2      OT      -0.834000       15.9994           0
     24001 TIP3     564      TIP3     H1       HT       0.417000       1.00800           0
     24002 TIP3     564      TIP3     H2       HT       0.417000       1.00800           0
     24003 TIP3     565      TIP3     OH2      OT      -0.834000       15.9994           0
     24004 TIP3     565      TIP3     H1       HT       0.417000       1.00800           0
     24005 TIP3     565      TIP3     H2       HT       0.417000       1.00800           0
     24006 TIP3     566      TIP3     OH2      OT      -0.834000       15.9994           0
     24007 TIP3     566      TIP3     H1       HT       0.417000       1.00800           0
     24008 TIP3     566      TIP3     H2       HT       0.417000       1.00800           0
     24009 TIP3     567      TIP3     OH2      OT      -0.834000       15.9994           0
     24010 TIP3     567      TIP3     H1       HT       0.417000       1.00800           0
     24011 TIP3     567      TIP3     H2       HT       0.417000       1.00800           0
     24012 TIP3     568      TIP3     OH2      OT      -0.834000       15.9994           0
     24013 TIP3     568      TIP3     H1       HT       0.417000       1.00800           0
     24014 TIP3     568      TIP3     H2       HT       0.417000       1.00800           0
     24015 TIP3     569      TIP3     OH2      OT      -0.834000       15.9994           0
     24016 TIP3     569      TIP3     H1       HT       0.417000       1.00800           0
     24017 TIP3     569      TIP3     H2       HT       0.417000       1.00800           0
     24018 TIP3     570      TIP3     OH2      OT      -0.834000       15.9994           0
     24019 TIP3     570      TIP3     H1       HT       0.417000       1.00800           0
     24020 TIP3     570      TIP3     H2       HT       0.417000       1.00800           0
     24021 TIP3     571      TIP3     OH2      OT      -0.834000       15.9994           0
     24022 TIP3     571      TIP3     H1       HT       0.417000       1.00800           0
     24023 TIP3     571      TIP3     H2       HT       0.417000       1.00800           0
     24024 TIP3     572      TIP3     OH2      OT      -0.834000       15.9994           0
     24025 TIP3     572      TIP3     H1       HT       0.417000       1.00800           0
     24026 TIP3     572      TIP3     H2       HT       0.417000       1.00800           0
     24027 TIP3     573      TIP3     OH2      OT      -0.834000       15.9994           0
     24028 TIP3     573      TIP3     H1       HT       0.417000       1.00800           0
     24029 TIP3     573      TIP3     H2       HT       0.417000       1.00800           0
     24030 TIP3     574      TIP3     OH2      OT      -0.834000       15.9994           0
     24031 TIP3     574      TIP3     H1       HT       0.417000       1.00800           0
     24032 TIP3     574      TIP3     H2       HT       0.417000       1.00800           0
     24033 TIP3     575      TIP3     OH2      OT      -0.834000       15.9994           0
     24034 TIP3     575      TIP3     H1       HT       0.417000       1.00800           0
     24035 TIP3     575      TIP3     H2       HT       0.417000       1.00800           0
     24036 TIP3     576      TIP3     OH2      OT      -0.834000       15.9994           0
     24037 TIP3     576      TIP3     H1       HT       0.417000       1.00800           0
     24038 TIP3     576      TIP3     H2       HT       0.417000       1.00800           0
     24039 TIP3     577      TIP3     OH2      OT      -0.834000       15.9994           0
     24040 TIP3     577      TIP3     H1       HT       0.417000       1.00800           0
     24041 TIP3     577      TIP3     H2       HT       0.417000       1.00800           0
     24042 TIP3     578      TIP3     OH2      OT      -0.834000       15.9994           0
     24043 TIP3     578      TIP3     H1       HT       0.417000       1.00800           0
     24044 TIP3     578      TIP3     H2       HT       0.417000       1.00800           0
     24045 TIP3     579      TIP3     OH2      OT      -0.834000       15.9994           0
     24046 TIP3     579      TIP3     H1       HT       0.417000       1.00800           0
     24047 TIP3     579      TIP3     H2       HT       0.417000       1.00800           0
     24048 TIP3     580      TIP3     OH2      OT      -0.834000       15.9994           0
     24049 TIP3     580      TIP3     H1       HT       0.417000       1.00800           0
     24050 TIP3     580      TIP3     H2       HT       0.417000       1.00800           0
     24051 TIP3     581      TIP3     OH2      OT      -0.834000       15.9994           0
     24052 TIP3     581      TIP3     H1       HT       0.417000       1.00800           0
     24053 TIP3     581      TIP3     H2       HT       0.417000       1.00800           0
     24054 TIP3     582      TIP3     OH2      OT      -0.834000       15.9994           0
     24055 TIP3     582      TIP3     H1       HT       0.417000       1.00800           0
     24056 TIP3     582      TIP3     H2       HT       0.417000       1.00800           0
     24057 TIP3     583      TIP3     OH2      OT      -0.834000       15.9994           0
     24058 TIP3     583      TIP3     H1       HT       0.417000       1.00800           0
     24059 TIP3     583      TIP3     H2       HT       0.417000       1.00800           0
     24060 TIP3     584      TIP3     OH2      OT      -0.834000       15.9994           0
     24061 TIP3     584      TIP3     H1       HT       0.417000       1.00800           0
     24062 TIP3     584      TIP3     H2       HT       0.417000       1.00800           0
     24063 TIP3     585      TIP3     OH2      OT      -0.834000       15.9994           0
     24064 TIP3     585      TIP3     H1       HT       0.417000       1.00800           0
     24065 TIP3     585      TIP3     H2       HT       0.417000       1.00800           0
     24066 TIP3     586      TIP3     OH2      OT      -0.834000       15.9994           0
     24067 TIP3     586      TIP3     H1       HT       0.417000       1.00800           0
     24068 TIP3     586      TIP3     H2       HT       0.417000       1.00800           0
     24069 TIP3     587      TIP3     OH2      OT      -0.834000       15.9994           0
     24070 TIP3     587      TIP3     H1       HT       0.417000       1.00800           0
     24071 TIP3     587      TIP3     H2       HT       0.417000       1.00800           0
     24072 TIP3     588      TIP3     OH2      OT      -0.834000       15.9994           0
     24073 TIP3     588      TIP3     H1       HT       0.417000       1.00800           0
     24074 TIP3     588      TIP3     H2       HT       0.417000       1.00800           0
     24075 TIP3     589      TIP3     OH2      OT      -0.834000       15.9994           0
     24076 TIP3     589      TIP3     H1       HT       0.417000       1.00800           0
     24077 TIP3     589      TIP3     H2       HT       0.417000       1.00800           0
     24078 TIP3     590      TIP3     OH2      OT      -0.834000       15.9994           0
     24079 TIP3     590      TIP3     H1       HT       0.417000       1.00800           0
     24080 TIP3     590      TIP3     H2       HT       0.417000       1.00800           0
     24081 TIP3     591      TIP3     OH2      OT      -0.834000       15.9994           0
     24082 TIP3     591      TIP3     H1       HT       0.417000       1.00800           0
     24083 TIP3     591      TIP3     H2       HT       0.417000       1.00800           0
     24084 TIP3     592      TIP3     OH2      OT      -0.834000       15.9994           0
     24085 TIP3     592      TIP3     H1       HT       0.417000       1.00800           0
     24086 TIP3     592      TIP3     H2       HT       0.417000       1.00800           0
     24087 TIP3     593      TIP3     OH2      OT      -0.834000       15.9994           0
     24088 TIP3     593      TIP3     H1       HT       0.417000       1.00800           0
     24089 TIP3     593      TIP3     H2       HT       0.417000       1.00800           0
     24090 TIP3     594      TIP3     OH2      OT      -0.834000       15.9994           0
     24091 TIP3     594      TIP3     H1       HT       0.417000       1.00800           0
     24092 TIP3     594      TIP3     H2       HT       0.417000       1.00800           0
     24093 TIP3     595      TIP3     OH2      OT      -0.834000       15.9994           0
     24094 TIP3     595      TIP3     H1       HT       0.417000       1.00800           0
     24095 TIP3     595      TIP3     H2       HT       0.417000       1.00800           0
     24096 TIP3     596      TIP3     OH2      OT      -0.834000       15.9994           0
     24097 TIP3     596      TIP3     H1       HT       0.417000       1.00800           0
     24098 TIP3     596      TIP3     H2       HT       0.417000       1.00800           0
     24099 TIP3     597      TIP3     OH2      OT      -0.834000       15.9994           0
     24100 TIP3     597      TIP3     H1       HT       0.417000       1.00800           0
     24101 TIP3     597      TIP3     H2       HT       0.417000       1.00800           0
     24102 TIP3     598      TIP3     OH2      OT      -0.834000       15.9994           0
     24103 TIP3     598      TIP3     H1       HT       0.417000       1.00800           0
     24104 TIP3     598      TIP3     H2       HT       0.417000       1.00800           0
     24105 TIP3     599      TIP3     OH2      OT      -0.834000       15.9994           0
     24106 TIP3     599      TIP3     H1       HT       0.417000       1.00800           0
     24107 TIP3     599      TIP3     H2       HT       0.417000       1.00800           0
     24108 TIP3     600      TIP3     OH2      OT      -0.834000       15.9994           0
     24109 TIP3     600      TIP3     H1       HT       0.417000       1.00800           0
     24110 TIP3     600      TIP3     H2       HT       0.417000       1.00800           0
     24111 TIP3     601      TIP3     OH2      OT      -0.834000       15.9994           0
     24112 TIP3     601      TIP3     H1       HT       0.417000       1.00800           0
     24113 TIP3     601      TIP3     H2       HT       0.417000       1.00800           0
     24114 TIP3     602      TIP3     OH2      OT      -0.834000       15.9994           0
     24115 TIP3     602      TIP3     H1       HT       0.417000       1.00800           0
     24116 TIP3     602      TIP3     H2       HT       0.417000       1.00800           0
     24117 TIP3     603      TIP3     OH2      OT      -0.834000       15.9994           0
     24118 TIP3     603      TIP3     H1       HT       0.417000       1.00800           0
     24119 TIP3     603      TIP3     H2       HT       0.417000       1.00800           0
     24120 TIP3     604      TIP3     OH2      OT      -0.834000       15.9994           0
     24121 TIP3     604      TIP3     H1       HT       0.417000       1.00800           0
     24122 TIP3     604      TIP3     H2       HT       0.417000       1.00800           0
     24123 TIP3     605      TIP3     OH2      OT      -0.834000       15.9994           0
     24124 TIP3     605      TIP3     H1       HT       0.417000       1.00800           0
     24125 TIP3     605      TIP3     H2       HT       0.417000       1.00800           0
     24126 TIP3     606      TIP3     OH2      OT      -0.834000       15.9994           0
     24127 TIP3     606      TIP3     H1       HT       0.417000       1.00800           0
     24128 TIP3     606      TIP3     H2       HT       0.417000       1.00800           0
     24129 TIP3     607      TIP3     OH2      OT      -0.834000       15.9994           0
     24130 TIP3     607      TIP3     H1       HT       0.417000       1.00800           0
     24131 TIP3     607      TIP3     H2       HT       0.417000       1.00800           0
     24132 TIP3     608      TIP3     OH2      OT      -0.834000       15.9994           0
     24133 TIP3     608      TIP3     H1       HT       0.417000       1.00800           0
     24134 TIP3     608      TIP3     H2       HT       0.417000       1.00800           0
     24135 TIP3     609      TIP3     OH2      OT      -0.834000       15.9994           0
     24136 TIP3     609      TIP3     H1       HT       0.417000       1.00800           0
     24137 TIP3     609      TIP3     H2       HT       0.417000       1.00800           0
     24138 TIP3     610      TIP3     OH2      OT      -0.834000       15.9994           0
     24139 TIP3     610      TIP3     H1       HT       0.417000       1.00800           0
     24140 TIP3     610      TIP3     H2       HT       0.417000       1.00800           0
     24141 TIP3     611      TIP3     OH2      OT      -0.834000       15.9994           0
     24142 TIP3     611      TIP3     H1       HT       0.417000       1.00800           0
     24143 TIP3     611      TIP3     H2       HT       0.417000       1.00800           0
     24144 TIP3     612      TIP3     OH2      OT      -0.834000       15.9994           0
     24145 TIP3     612      TIP3     H1       HT       0.417000       1.00800           0
     24146 TIP3     612      TIP3     H2       HT       0.417000       1.00800           0
     24147 TIP3     613      TIP3     OH2      OT      -0.834000       15.9994           0
     24148 TIP3     613      TIP3     H1       HT       0.417000       1.00800           0
     24149 TIP3     613      TIP3     H2       HT       0.417000       1.00800           0
     24150 TIP3     614      TIP3     OH2      OT      -0.834000       15.9994           0
     24151 TIP3     614      TIP3     H1       HT       0.417000       1.00800           0
     24152 TIP3     614      TIP3     H2       HT       0.417000       1.00800           0
     24153 TIP3     615      TIP3     OH2      OT      -0.834000       15.9994           0
     24154 TIP3     615      TIP3     H1       HT       0.417000       1.00800           0
     24155 TIP3     615      TIP3     H2       HT       0.417000       1.00800           0
     24156 TIP3     616      TIP3     OH2      OT      -0.834000       15.9994           0
     24157 TIP3     616      TIP3     H1       HT       0.417000       1.00800           0
     24158 TIP3     616      TIP3     H2       HT       0.417000       1.00800           0
     24159 TIP3     617      TIP3     OH2      OT      -0.834000       15.9994           0
     24160 TIP3     617      TIP3     H1       HT       0.417000       1.00800           0
     24161 TIP3     617      TIP3     H2       HT       0.417000       1.00800           0
     24162 TIP3     618      TIP3     OH2      OT      -0.834000       15.9994           0
     24163 TIP3     618      TIP3     H1       HT       0.417000       1.00800           0
     24164 TIP3     618      TIP3     H2       HT       0.417000       1.00800           0
     24165 TIP3     619      TIP3     OH2      OT      -0.834000       15.9994           0
     24166 TIP3     619      TIP3     H1       HT       0.417000       1.00800           0
     24167 TIP3     619      TIP3     H2       HT       0.417000       1.00800           0
     24168 TIP3     620      TIP3     OH2      OT      -0.834000       15.9994           0
     24169 TIP3     620      TIP3     H1       HT       0.417000       1.00800           0
     24170 TIP3     620      TIP3     H2       HT       0.417000       1.00800           0
     24171 TIP3     621      TIP3     OH2      OT      -0.834000       15.9994           0
     24172 TIP3     621      TIP3     H1       HT       0.417000       1.00800           0
     24173 TIP3     621      TIP3     H2       HT       0.417000       1.00800           0
     24174 TIP3     622      TIP3     OH2      OT      -0.834000       15.9994           0
     24175 TIP3     622      TIP3     H1       HT       0.417000       1.00800           0
     24176 TIP3     622      TIP3     H2       HT       0.417000       1.00800           0
     24177 TIP3     623      TIP3     OH2      OT      -0.834000       15.9994           0
     24178 TIP3     623      TIP3     H1       HT       0.417000       1.00800           0
     24179 TIP3     623      TIP3     H2       HT       0.417000       1.00800           0
     24180 TIP3     624      TIP3     OH2      OT      -0.834000       15.9994           0
     24181 TIP3     624      TIP3     H1       HT       0.417000       1.00800           0
     24182 TIP3     624      TIP3     H2       HT       0.417000       1.00800           0
     24183 TIP3     625      TIP3     OH2      OT      -0.834000       15.9994           0
     24184 TIP3     625      TIP3     H1       HT       0.417000       1.00800           0
     24185 TIP3     625      TIP3     H2       HT       0.417000       1.00800           0
     24186 TIP3     626      TIP3     OH2      OT      -0.834000       15.9994           0
     24187 TIP3     626      TIP3     H1       HT       0.417000       1.00800           0
     24188 TIP3     626      TIP3     H2       HT       0.417000       1.00800           0
     24189 TIP3     627      TIP3     OH2      OT      -0.834000       15.9994           0
     24190 TIP3     627      TIP3     H1       HT       0.417000       1.00800           0
     24191 TIP3     627      TIP3     H2       HT       0.417000       1.00800           0
     24192 TIP3     628      TIP3     OH2      OT      -0.834000       15.9994           0
     24193 TIP3     628      TIP3     H1       HT       0.417000       1.00800           0
     24194 TIP3     628      TIP3     H2       HT       0.417000       1.00800           0
     24195 TIP3     629      TIP3     OH2      OT      -0.834000       15.9994           0
     24196 TIP3     629      TIP3     H1       HT       0.417000       1.00800           0
     24197 TIP3     629      TIP3     H2       HT       0.417000       1.00800           0
     24198 TIP3     630      TIP3     OH2      OT      -0.834000       15.9994           0
     24199 TIP3     630      TIP3     H1       HT       0.417000       1.00800           0
     24200 TIP3     630      TIP3     H2       HT       0.417000       1.00800           0
     24201 TIP3     631      TIP3     OH2      OT      -0.834000       15.9994           0
     24202 TIP3     631      TIP3     H1       HT       0.417000       1.00800           0
     24203 TIP3     631      TIP3     H2       HT       0.417000       1.00800           0
     24204 TIP3     632      TIP3     OH2      OT      -0.834000       15.9994           0
     24205 TIP3     632      TIP3     H1       HT       0.417000       1.00800           0
     24206 TIP3     632      TIP3     H2       HT       0.417000       1.00800           0
     24207 TIP3     633      TIP3     OH2      OT      -0.834000       15.9994           0
     24208 TIP3     633      TIP3     H1       HT       0.417000       1.00800           0
     24209 TIP3     633      TIP3     H2       HT       0.417000       1.00800           0
     24210 TIP3     634      TIP3     OH2      OT      -0.834000       15.9994           0
     24211 TIP3     634      TIP3     H1       HT       0.417000       1.00800           0
     24212 TIP3     634      TIP3     H2       HT       0.417000       1.00800           0
     24213 TIP3     635      TIP3     OH2      OT      -0.834000       15.9994           0
     24214 TIP3     635      TIP3     H1       HT       0.417000       1.00800           0
     24215 TIP3     635      TIP3     H2       HT       0.417000       1.00800           0
     24216 TIP3     636      TIP3     OH2      OT      -0.834000       15.9994           0
     24217 TIP3     636      TIP3     H1       HT       0.417000       1.00800           0
     24218 TIP3     636      TIP3     H2       HT       0.417000       1.00800           0
     24219 TIP3     637      TIP3     OH2      OT      -0.834000       15.9994           0
     24220 TIP3     637      TIP3     H1       HT       0.417000       1.00800           0
     24221 TIP3     637      TIP3     H2       HT       0.417000       1.00800           0
     24222 TIP3     638      TIP3     OH2      OT      -0.834000       15.9994           0
     24223 TIP3     638      TIP3     H1       HT       0.417000       1.00800           0
     24224 TIP3     638      TIP3     H2       HT       0.417000       1.00800           0
     24225 TIP3     639      TIP3     OH2      OT      -0.834000       15.9994           0
     24226 TIP3     639      TIP3     H1       HT       0.417000       1.00800           0
     24227 TIP3     639      TIP3     H2       HT       0.417000       1.00800           0
     24228 TIP3     640      TIP3     OH2      OT      -0.834000       15.9994           0
     24229 TIP3     640      TIP3     H1       HT       0.417000       1.00800           0
     24230 TIP3     640      TIP3     H2       HT       0.417000       1.00800           0
     24231 TIP3     641      TIP3     OH2      OT      -0.834000       15.9994           0
     24232 TIP3     641      TIP3     H1       HT       0.417000       1.00800           0
     24233 TIP3     641      TIP3     H2       HT       0.417000       1.00800           0
     24234 TIP3     642      TIP3     OH2      OT      -0.834000       15.9994           0
     24235 TIP3     642      TIP3     H1       HT       0.417000       1.00800           0
     24236 TIP3     642      TIP3     H2       HT       0.417000       1.00800           0
     24237 TIP3     643      TIP3     OH2      OT      -0.834000       15.9994           0
     24238 TIP3     643      TIP3     H1       HT       0.417000       1.00800           0
     24239 TIP3     643      TIP3     H2       HT       0.417000       1.00800           0
     24240 TIP3     644      TIP3     OH2      OT      -0.834000       15.9994           0
     24241 TIP3     644      TIP3     H1       HT       0.417000       1.00800           0
     24242 TIP3     644      TIP3     H2       HT       0.417000       1.00800           0
     24243 TIP3     645      TIP3     OH2      OT      -0.834000       15.9994           0
     24244 TIP3     645      TIP3     H1       HT       0.417000       1.00800           0
     24245 TIP3     645      TIP3     H2       HT       0.417000       1.00800           0
     24246 TIP3     646      TIP3     OH2      OT      -0.834000       15.9994           0
     24247 TIP3     646      TIP3     H1       HT       0.417000       1.00800           0
     24248 TIP3     646      TIP3     H2       HT       0.417000       1.00800           0
     24249 TIP3     647      TIP3     OH2      OT      -0.834000       15.9994           0
     24250 TIP3     647      TIP3     H1       HT       0.417000       1.00800           0
     24251 TIP3     647      TIP3     H2       HT       0.417000       1.00800           0
     24252 TIP3     648      TIP3     OH2      OT      -0.834000       15.9994           0
     24253 TIP3     648      TIP3     H1       HT       0.417000       1.00800           0
     24254 TIP3     648      TIP3     H2       HT       0.417000       1.00800           0
     24255 TIP3     649      TIP3     OH2      OT      -0.834000       15.9994           0
     24256 TIP3     649      TIP3     H1       HT       0.417000       1.00800           0
     24257 TIP3     649      TIP3     H2       HT       0.417000       1.00800           0
     24258 TIP3     650      TIP3     OH2      OT      -0.834000       15.9994           0
     24259 TIP3     650      TIP3     H1       HT       0.417000       1.00800           0
     24260 TIP3     650      TIP3     H2       HT       0.417000       1.00800           0
     24261 TIP3     651      TIP3     OH2      OT      -0.834000       15.9994           0
     24262 TIP3     651      TIP3     H1       HT       0.417000       1.00800           0
     24263 TIP3     651      TIP3     H2       HT       0.417000       1.00800           0
     24264 TIP3     652      TIP3     OH2      OT      -0.834000       15.9994           0
     24265 TIP3     652      TIP3     H1       HT       0.417000       1.00800           0
     24266 TIP3     652      TIP3     H2       HT       0.417000       1.00800           0
     24267 TIP3     653      TIP3     OH2      OT      -0.834000       15.9994           0
     24268 TIP3     653      TIP3     H1       HT       0.417000       1.00800           0
     24269 TIP3     653      TIP3     H2       HT       0.417000       1.00800           0
     24270 TIP3     654      TIP3     OH2      OT      -0.834000       15.9994           0
     24271 TIP3     654      TIP3     H1       HT       0.417000       1.00800           0
     24272 TIP3     654      TIP3     H2       HT       0.417000       1.00800           0
     24273 TIP3     655      TIP3     OH2      OT      -0.834000       15.9994           0
     24274 TIP3     655      TIP3     H1       HT       0.417000       1.00800           0
     24275 TIP3     655      TIP3     H2       HT       0.417000       1.00800           0
     24276 TIP3     656      TIP3     OH2      OT      -0.834000       15.9994           0
     24277 TIP3     656      TIP3     H1       HT       0.417000       1.00800           0
     24278 TIP3     656      TIP3     H2       HT       0.417000       1.00800           0
     24279 TIP3     657      TIP3     OH2      OT      -0.834000       15.9994           0
     24280 TIP3     657      TIP3     H1       HT       0.417000       1.00800           0
     24281 TIP3     657      TIP3     H2       HT       0.417000       1.00800           0
     24282 TIP3     658      TIP3     OH2      OT      -0.834000       15.9994           0
     24283 TIP3     658      TIP3     H1       HT       0.417000       1.00800           0
     24284 TIP3     658      TIP3     H2       HT       0.417000       1.00800           0
     24285 TIP3     659      TIP3     OH2      OT      -0.834000       15.9994           0
     24286 TIP3     659      TIP3     H1       HT       0.417000       1.00800           0
     24287 TIP3     659      TIP3     H2       HT       0.417000       1.00800           0
     24288 TIP3     660      TIP3     OH2      OT      -0.834000       15.9994           0
     24289 TIP3     660      TIP3     H1       HT       0.417000       1.00800           0
     24290 TIP3     660      TIP3     H2       HT       0.417000       1.00800           0
     24291 TIP3     661      TIP3     OH2      OT      -0.834000       15.9994           0
     24292 TIP3     661      TIP3     H1       HT       0.417000       1.00800           0
     24293 TIP3     661      TIP3     H2       HT       0.417000       1.00800           0
     24294 TIP3     662      TIP3     OH2      OT      -0.834000       15.9994           0
     24295 TIP3     662      TIP3     H1       HT       0.417000       1.00800           0
     24296 TIP3     662      TIP3     H2       HT       0.417000       1.00800           0
     24297 TIP3     663      TIP3     OH2      OT      -0.834000       15.9994           0
     24298 TIP3     663      TIP3     H1       HT       0.417000       1.00800           0
     24299 TIP3     663      TIP3     H2       HT       0.417000       1.00800           0
     24300 TIP3     664      TIP3     OH2      OT      -0.834000       15.9994           0
     24301 TIP3     664      TIP3     H1       HT       0.417000       1.00800           0
     24302 TIP3     664      TIP3     H2       HT       0.417000       1.00800           0
     24303 TIP3     665      TIP3     OH2      OT      -0.834000       15.9994           0
     24304 TIP3     665      TIP3     H1       HT       0.417000       1.00800           0
     24305 TIP3     665      TIP3     H2       HT       0.417000       1.00800           0
     24306 TIP3     666      TIP3     OH2      OT      -0.834000       15.9994           0
     24307 TIP3     666      TIP3     H1       HT       0.417000       1.00800           0
     24308 TIP3     666      TIP3     H2       HT       0.417000       1.00800           0
     24309 TIP3     667      TIP3     OH2      OT      -0.834000       15.9994           0
     24310 TIP3     667      TIP3     H1       HT       0.417000       1.00800           0
     24311 TIP3     667      TIP3     H2       HT       0.417000       1.00800           0
     24312 TIP3     668      TIP3     OH2      OT      -0.834000       15.9994           0
     24313 TIP3     668      TIP3     H1       HT       0.417000       1.00800           0
     24314 TIP3     668      TIP3     H2       HT       0.417000       1.00800           0
     24315 TIP3     669      TIP3     OH2      OT      -0.834000       15.9994           0
     24316 TIP3     669      TIP3     H1       HT       0.417000       1.00800           0
     24317 TIP3     669      TIP3     H2       HT       0.417000       1.00800           0
     24318 TIP3     670      TIP3     OH2      OT      -0.834000       15.9994           0
     24319 TIP3     670      TIP3     H1       HT       0.417000       1.00800           0
     24320 TIP3     670      TIP3     H2       HT       0.417000       1.00800           0
     24321 TIP3     671      TIP3     OH2      OT      -0.834000       15.9994           0
     24322 TIP3     671      TIP3     H1       HT       0.417000       1.00800           0
     24323 TIP3     671      TIP3     H2       HT       0.417000       1.00800           0
     24324 TIP3     672      TIP3     OH2      OT      -0.834000       15.9994           0
     24325 TIP3     672      TIP3     H1       HT       0.417000       1.00800           0
     24326 TIP3     672      TIP3     H2       HT       0.417000       1.00800           0
     24327 TIP3     673      TIP3     OH2      OT      -0.834000       15.9994           0
     24328 TIP3     673      TIP3     H1       HT       0.417000       1.00800           0
     24329 TIP3     673      TIP3     H2       HT       0.417000       1.00800           0
     24330 TIP3     674      TIP3     OH2      OT      -0.834000       15.9994           0
     24331 TIP3     674      TIP3     H1       HT       0.417000       1.00800           0
     24332 TIP3     674      TIP3     H2       HT       0.417000       1.00800           0
     24333 TIP3     675      TIP3     OH2      OT      -0.834000       15.9994           0
     24334 TIP3     675      TIP3     H1       HT       0.417000       1.00800           0
     24335 TIP3     675      TIP3     H2       HT       0.417000       1.00800           0
     24336 TIP3     676      TIP3     OH2      OT      -0.834000       15.9994           0
     24337 TIP3     676      TIP3     H1       HT       0.417000       1.00800           0
     24338 TIP3     676      TIP3     H2       HT       0.417000       1.00800           0
     24339 TIP3     677      TIP3     OH2      OT      -0.834000       15.9994           0
     24340 TIP3     677      TIP3     H1       HT       0.417000       1.00800           0
     24341 TIP3     677      TIP3     H2       HT       0.417000       1.00800           0
     24342 TIP3     678      TIP3     OH2      OT      -0.834000       15.9994           0
     24343 TIP3     678      TIP3     H1       HT       0.417000       1.00800           0
     24344 TIP3     678      TIP3     H2       HT       0.417000       1.00800           0
     24345 TIP3     679      TIP3     OH2      OT      -0.834000       15.9994           0
     24346 TIP3     679      TIP3     H1       HT       0.417000       1.00800           0
     24347 TIP3     679      TIP3     H2       HT       0.417000       1.00800           0
     24348 TIP3     680      TIP3     OH2      OT      -0.834000       15.9994           0
     24349 TIP3     680      TIP3     H1       HT       0.417000       1.00800           0
     24350 TIP3     680      TIP3     H2       HT       0.417000       1.00800           0
     24351 TIP3     681      TIP3     OH2      OT      -0.834000       15.9994           0
     24352 TIP3     681      TIP3     H1       HT       0.417000       1.00800           0
     24353 TIP3     681      TIP3     H2       HT       0.417000       1.00800           0
     24354 TIP3     682      TIP3     OH2      OT      -0.834000       15.9994           0
     24355 TIP3     682      TIP3     H1       HT       0.417000       1.00800           0
     24356 TIP3     682      TIP3     H2       HT       0.417000       1.00800           0
     24357 TIP3     683      TIP3     OH2      OT      -0.834000       15.9994           0
     24358 TIP3     683      TIP3     H1       HT       0.417000       1.00800           0
     24359 TIP3     683      TIP3     H2       HT       0.417000       1.00800           0
     24360 TIP3     684      TIP3     OH2      OT      -0.834000       15.9994           0
     24361 TIP3     684      TIP3     H1       HT       0.417000       1.00800           0
     24362 TIP3     684      TIP3     H2       HT       0.417000       1.00800           0
     24363 TIP3     685      TIP3     OH2      OT      -0.834000       15.9994           0
     24364 TIP3     685      TIP3     H1       HT       0.417000       1.00800           0
     24365 TIP3     685      TIP3     H2       HT       0.417000       1.00800           0
     24366 TIP3     686      TIP3     OH2      OT      -0.834000       15.9994           0
     24367 TIP3     686      TIP3     H1       HT       0.417000       1.00800           0
     24368 TIP3     686      TIP3     H2       HT       0.417000       1.00800           0
     24369 TIP3     687      TIP3     OH2      OT      -0.834000       15.9994           0
     24370 TIP3     687      TIP3     H1       HT       0.417000       1.00800           0
     24371 TIP3     687      TIP3     H2       HT       0.417000       1.00800           0
     24372 TIP3     688      TIP3     OH2      OT      -0.834000       15.9994           0
     24373 TIP3     688      TIP3     H1       HT       0.417000       1.00800           0
     24374 TIP3     688      TIP3     H2       HT       0.417000       1.00800           0
     24375 TIP3     689      TIP3     OH2      OT      -0.834000       15.9994           0
     24376 TIP3     689      TIP3     H1       HT       0.417000       1.00800           0
     24377 TIP3     689      TIP3     H2       HT       0.417000       1.00800           0
     24378 TIP3     690      TIP3     OH2      OT      -0.834000       15.9994           0
     24379 TIP3     690      TIP3     H1       HT       0.417000       1.00800           0
     24380 TIP3     690      TIP3     H2       HT       0.417000       1.00800           0
     24381 TIP3     691      TIP3     OH2      OT      -0.834000       15.9994           0
     24382 TIP3     691      TIP3     H1       HT       0.417000       1.00800           0
     24383 TIP3     691      TIP3     H2       HT       0.417000       1.00800           0
     24384 TIP3     692      TIP3     OH2      OT      -0.834000       15.9994           0
     24385 TIP3     692      TIP3     H1       HT       0.417000       1.00800           0
     24386 TIP3     692      TIP3     H2       HT       0.417000       1.00800           0
     24387 TIP3     693      TIP3     OH2      OT      -0.834000       15.9994           0
     24388 TIP3     693      TIP3     H1       HT       0.417000       1.00800           0
     24389 TIP3     693      TIP3     H2       HT       0.417000       1.00800           0
     24390 TIP3     694      TIP3     OH2      OT      -0.834000       15.9994           0
     24391 TIP3     694      TIP3     H1       HT       0.417000       1.00800           0
     24392 TIP3     694      TIP3     H2       HT       0.417000       1.00800           0
     24393 TIP3     695      TIP3     OH2      OT      -0.834000       15.9994           0
     24394 TIP3     695      TIP3     H1       HT       0.417000       1.00800           0
     24395 TIP3     695      TIP3     H2       HT       0.417000       1.00800           0
     24396 TIP3     696      TIP3     OH2      OT      -0.834000       15.9994           0
     24397 TIP3     696      TIP3     H1       HT       0.417000       1.00800           0
     24398 TIP3     696      TIP3     H2       HT       0.417000       1.00800           0
     24399 TIP3     697      TIP3     OH2      OT      -0.834000       15.9994           0
     24400 TIP3     697      TIP3     H1       HT       0.417000       1.00800           0
     24401 TIP3     697      TIP3     H2       HT       0.417000       1.00800           0
     24402 TIP3     698      TIP3     OH2      OT      -0.834000       15.9994           0
     24403 TIP3     698      TIP3     H1       HT       0.417000       1.00800           0
     24404 TIP3     698      TIP3     H2       HT       0.417000       1.00800           0
     24405 TIP3     699      TIP3     OH2      OT      -0.834000       15.9994           0
     24406 TIP3     699      TIP3     H1       HT       0.417000       1.00800           0
     24407 TIP3     699      TIP3     H2       HT       0.417000       1.00800           0
     24408 TIP3     700      TIP3     OH2      OT      -0.834000       15.9994           0
     24409 TIP3     700      TIP3     H1       HT       0.417000       1.00800           0
     24410 TIP3     700      TIP3     H2       HT       0.417000       1.00800           0
     24411 TIP3     701      TIP3     OH2      OT      -0.834000       15.9994           0
     24412 TIP3     701      TIP3     H1       HT       0.417000       1.00800           0
     24413 TIP3     701      TIP3     H2       HT       0.417000       1.00800           0
     24414 TIP3     702      TIP3     OH2      OT      -0.834000       15.9994           0
     24415 TIP3     702      TIP3     H1       HT       0.417000       1.00800           0
     24416 TIP3     702      TIP3     H2       HT       0.417000       1.00800           0
     24417 TIP3     703      TIP3     OH2      OT      -0.834000       15.9994           0
     24418 TIP3     703      TIP3     H1       HT       0.417000       1.00800           0
     24419 TIP3     703      TIP3     H2       HT       0.417000       1.00800           0
     24420 TIP3     704      TIP3     OH2      OT      -0.834000       15.9994           0
     24421 TIP3     704      TIP3     H1       HT       0.417000       1.00800           0
     24422 TIP3     704      TIP3     H2       HT       0.417000       1.00800           0
     24423 TIP3     705      TIP3     OH2      OT      -0.834000       15.9994           0
     24424 TIP3     705      TIP3     H1       HT       0.417000       1.00800           0
     24425 TIP3     705      TIP3     H2       HT       0.417000       1.00800           0
     24426 TIP3     706      TIP3     OH2      OT      -0.834000       15.9994           0
     24427 TIP3     706      TIP3     H1       HT       0.417000       1.00800           0
     24428 TIP3     706      TIP3     H2       HT       0.417000       1.00800           0
     24429 TIP3     707      TIP3     OH2      OT      -0.834000       15.9994           0
     24430 TIP3     707      TIP3     H1       HT       0.417000       1.00800           0
     24431 TIP3     707      TIP3     H2       HT       0.417000       1.00800           0
     24432 TIP3     708      TIP3     OH2      OT      -0.834000       15.9994           0
     24433 TIP3     708      TIP3     H1       HT       0.417000       1.00800           0
     24434 TIP3     708      TIP3     H2       HT       0.417000       1.00800           0
     24435 TIP3     709      TIP3     OH2      OT      -0.834000       15.9994           0
     24436 TIP3     709      TIP3     H1       HT       0.417000       1.00800           0
     24437 TIP3     709      TIP3     H2       HT       0.417000       1.00800           0
     24438 TIP3     710      TIP3     OH2      OT      -0.834000       15.9994           0
     24439 TIP3     710      TIP3     H1       HT       0.417000       1.00800           0
     24440 TIP3     710      TIP3     H2       HT       0.417000       1.00800           0
     24441 TIP3     711      TIP3     OH2      OT      -0.834000       15.9994           0
     24442 TIP3     711      TIP3     H1       HT       0.417000       1.00800           0
     24443 TIP3     711      TIP3     H2       HT       0.417000       1.00800           0
     24444 TIP3     712      TIP3     OH2      OT      -0.834000       15.9994           0
     24445 TIP3     712      TIP3     H1       HT       0.417000       1.00800           0
     24446 TIP3     712      TIP3     H2       HT       0.417000       1.00800           0
     24447 TIP3     713      TIP3     OH2      OT      -0.834000       15.9994           0
     24448 TIP3     713      TIP3     H1       HT       0.417000       1.00800           0
     24449 TIP3     713      TIP3     H2       HT       0.417000       1.00800           0
     24450 TIP3     714      TIP3     OH2      OT      -0.834000       15.9994           0
     24451 TIP3     714      TIP3     H1       HT       0.417000       1.00800           0
     24452 TIP3     714      TIP3     H2       HT       0.417000       1.00800           0
     24453 TIP3     715      TIP3     OH2      OT      -0.834000       15.9994           0
     24454 TIP3     715      TIP3     H1       HT       0.417000       1.00800           0
     24455 TIP3     715      TIP3     H2       HT       0.417000       1.00800           0
     24456 TIP3     716      TIP3     OH2      OT      -0.834000       15.9994           0
     24457 TIP3     716      TIP3     H1       HT       0.417000       1.00800           0
     24458 TIP3     716      TIP3     H2       HT       0.417000       1.00800           0
     24459 TIP3     717      TIP3     OH2      OT      -0.834000       15.9994           0
     24460 TIP3     717      TIP3     H1       HT       0.417000       1.00800           0
     24461 TIP3     717      TIP3     H2       HT       0.417000       1.00800           0
     24462 TIP3     718      TIP3     OH2      OT      -0.834000       15.9994           0
     24463 TIP3     718      TIP3     H1       HT       0.417000       1.00800           0
     24464 TIP3     718      TIP3     H2       HT       0.417000       1.00800           0
     24465 TIP3     719      TIP3     OH2      OT      -0.834000       15.9994           0
     24466 TIP3     719      TIP3     H1       HT       0.417000       1.00800           0
     24467 TIP3     719      TIP3     H2       HT       0.417000       1.00800           0
     24468 TIP3     720      TIP3     OH2      OT      -0.834000       15.9994           0
     24469 TIP3     720      TIP3     H1       HT       0.417000       1.00800           0
     24470 TIP3     720      TIP3     H2       HT       0.417000       1.00800           0
     24471 TIP3     721      TIP3     OH2      OT      -0.834000       15.9994           0
     24472 TIP3     721      TIP3     H1       HT       0.417000       1.00800           0
     24473 TIP3     721      TIP3     H2       HT       0.417000       1.00800           0
     24474 TIP3     722      TIP3     OH2      OT      -0.834000       15.9994           0
     24475 TIP3     722      TIP3     H1       HT       0.417000       1.00800           0
     24476 TIP3     722      TIP3     H2       HT       0.417000       1.00800           0
     24477 TIP3     723      TIP3     OH2      OT      -0.834000       15.9994           0
     24478 TIP3     723      TIP3     H1       HT       0.417000       1.00800           0
     24479 TIP3     723      TIP3     H2       HT       0.417000       1.00800           0
     24480 TIP3     724      TIP3     OH2      OT      -0.834000       15.9994           0
     24481 TIP3     724      TIP3     H1       HT       0.417000       1.00800           0
     24482 TIP3     724      TIP3     H2       HT       0.417000       1.00800           0
     24483 TIP3     725      TIP3     OH2      OT      -0.834000       15.9994           0
     24484 TIP3     725      TIP3     H1       HT       0.417000       1.00800           0
     24485 TIP3     725      TIP3     H2       HT       0.417000       1.00800           0
     24486 TIP3     726      TIP3     OH2      OT      -0.834000       15.9994           0
     24487 TIP3     726      TIP3     H1       HT       0.417000       1.00800           0
     24488 TIP3     726      TIP3     H2       HT       0.417000       1.00800           0
     24489 TIP3     727      TIP3     OH2      OT      -0.834000       15.9994           0
     24490 TIP3     727      TIP3     H1       HT       0.417000       1.00800           0
     24491 TIP3     727      TIP3     H2       HT       0.417000       1.00800           0
     24492 TIP3     728      TIP3     OH2      OT      -0.834000       15.9994           0
     24493 TIP3     728      TIP3     H1       HT       0.417000       1.00800           0
     24494 TIP3     728      TIP3     H2       HT       0.417000       1.00800           0
     24495 TIP3     729      TIP3     OH2      OT      -0.834000       15.9994           0
     24496 TIP3     729      TIP3     H1       HT       0.417000       1.00800           0
     24497 TIP3     729      TIP3     H2       HT       0.417000       1.00800           0
     24498 TIP3     730      TIP3     OH2      OT      -0.834000       15.9994           0
     24499 TIP3     730      TIP3     H1       HT       0.417000       1.00800           0
     24500 TIP3     730      TIP3     H2       HT       0.417000       1.00800           0
     24501 TIP3     731      TIP3     OH2      OT      -0.834000       15.9994           0
     24502 TIP3     731      TIP3     H1       HT       0.417000       1.00800           0
     24503 TIP3     731      TIP3     H2       HT       0.417000       1.00800           0
     24504 TIP3     732      TIP3     OH2      OT      -0.834000       15.9994           0
     24505 TIP3     732      TIP3     H1       HT       0.417000       1.00800           0
     24506 TIP3     732      TIP3     H2       HT       0.417000       1.00800           0
     24507 TIP3     733      TIP3     OH2      OT      -0.834000       15.9994           0
     24508 TIP3     733      TIP3     H1       HT       0.417000       1.00800           0
     24509 TIP3     733      TIP3     H2       HT       0.417000       1.00800           0
     24510 TIP3     734      TIP3     OH2      OT      -0.834000       15.9994           0
     24511 TIP3     734      TIP3     H1       HT       0.417000       1.00800           0
     24512 TIP3     734      TIP3     H2       HT       0.417000       1.00800           0
     24513 TIP3     735      TIP3     OH2      OT      -0.834000       15.9994           0
     24514 TIP3     735      TIP3     H1       HT       0.417000       1.00800           0
     24515 TIP3     735      TIP3     H2       HT       0.417000       1.00800           0
     24516 TIP3     736      TIP3     OH2      OT      -0.834000       15.9994           0
     24517 TIP3     736      TIP3     H1       HT       0.417000       1.00800           0
     24518 TIP3     736      TIP3     H2       HT       0.417000       1.00800           0
     24519 TIP3     737      TIP3     OH2      OT      -0.834000       15.9994           0
     24520 TIP3     737      TIP3     H1       HT       0.417000       1.00800           0
     24521 TIP3     737      TIP3     H2       HT       0.417000       1.00800           0
     24522 TIP3     738      TIP3     OH2      OT      -0.834000       15.9994           0
     24523 TIP3     738      TIP3     H1       HT       0.417000       1.00800           0
     24524 TIP3     738      TIP3     H2       HT       0.417000       1.00800           0
     24525 TIP3     739      TIP3     OH2      OT      -0.834000       15.9994           0
     24526 TIP3     739      TIP3     H1       HT       0.417000       1.00800           0
     24527 TIP3     739      TIP3     H2       HT       0.417000       1.00800           0
     24528 TIP3     740      TIP3     OH2      OT      -0.834000       15.9994           0
     24529 TIP3     740      TIP3     H1       HT       0.417000       1.00800           0
     24530 TIP3     740      TIP3     H2       HT       0.417000       1.00800           0
     24531 TIP3     741      TIP3     OH2      OT      -0.834000       15.9994           0
     24532 TIP3     741      TIP3     H1       HT       0.417000       1.00800           0
     24533 TIP3     741      TIP3     H2       HT       0.417000       1.00800           0
     24534 TIP3     742      TIP3     OH2      OT      -0.834000       15.9994           0
     24535 TIP3     742      TIP3     H1       HT       0.417000       1.00800           0
     24536 TIP3     742      TIP3     H2       HT       0.417000       1.00800           0
     24537 TIP3     743      TIP3     OH2      OT      -0.834000       15.9994           0
     24538 TIP3     743      TIP3     H1       HT       0.417000       1.00800           0
     24539 TIP3     743      TIP3     H2       HT       0.417000       1.00800           0
     24540 TIP3     744      TIP3     OH2      OT      -0.834000       15.9994           0
     24541 TIP3     744      TIP3     H1       HT       0.417000       1.00800           0
     24542 TIP3     744      TIP3     H2       HT       0.417000       1.00800           0
     24543 TIP3     745      TIP3     OH2      OT      -0.834000       15.9994           0
     24544 TIP3     745      TIP3     H1       HT       0.417000       1.00800           0
     24545 TIP3     745      TIP3     H2       HT       0.417000       1.00800           0
     24546 TIP3     746      TIP3     OH2      OT      -0.834000       15.9994           0
     24547 TIP3     746      TIP3     H1       HT       0.417000       1.00800           0
     24548 TIP3     746      TIP3     H2       HT       0.417000       1.00800           0
     24549 TIP3     747      TIP3     OH2      OT      -0.834000       15.9994           0
     24550 TIP3     747      TIP3     H1       HT       0.417000       1.00800           0
     24551 TIP3     747      TIP3     H2       HT       0.417000       1.00800           0
     24552 TIP3     748      TIP3     OH2      OT      -0.834000       15.9994           0
     24553 TIP3     748      TIP3     H1       HT       0.417000       1.00800           0
     24554 TIP3     748      TIP3     H2       HT       0.417000       1.00800           0
     24555 TIP3     749      TIP3     OH2      OT      -0.834000       15.9994           0
     24556 TIP3     749      TIP3     H1       HT       0.417000       1.00800           0
     24557 TIP3     749      TIP3     H2       HT       0.417000       1.00800           0
     24558 TIP3     750      TIP3     OH2      OT      -0.834000       15.9994           0
     24559 TIP3     750      TIP3     H1       HT       0.417000       1.00800           0
     24560 TIP3     750      TIP3     H2       HT       0.417000       1.00800           0
     24561 TIP3     751      TIP3     OH2      OT      -0.834000       15.9994           0
     24562 TIP3     751      TIP3     H1       HT       0.417000       1.00800           0
     24563 TIP3     751      TIP3     H2       HT       0.417000       1.00800           0
     24564 TIP3     752      TIP3     OH2      OT      -0.834000       15.9994           0
     24565 TIP3     752      TIP3     H1       HT       0.417000       1.00800           0
     24566 TIP3     752      TIP3     H2       HT       0.417000       1.00800           0
     24567 TIP3     753      TIP3     OH2      OT      -0.834000       15.9994           0
     24568 TIP3     753      TIP3     H1       HT       0.417000       1.00800           0
     24569 TIP3     753      TIP3     H2       HT       0.417000       1.00800           0
     24570 TIP3     754      TIP3     OH2      OT      -0.834000       15.9994           0
     24571 TIP3     754      TIP3     H1       HT       0.417000       1.00800           0
     24572 TIP3     754      TIP3     H2       HT       0.417000       1.00800           0
     24573 TIP3     755      TIP3     OH2      OT      -0.834000       15.9994           0
     24574 TIP3     755      TIP3     H1       HT       0.417000       1.00800           0
     24575 TIP3     755      TIP3     H2       HT       0.417000       1.00800           0
     24576 TIP3     756      TIP3     OH2      OT      -0.834000       15.9994           0
     24577 TIP3     756      TIP3     H1       HT       0.417000       1.00800           0
     24578 TIP3     756      TIP3     H2       HT       0.417000       1.00800           0
     24579 TIP3     757      TIP3     OH2      OT      -0.834000       15.9994           0
     24580 TIP3     757      TIP3     H1       HT       0.417000       1.00800           0
     24581 TIP3     757      TIP3     H2       HT       0.417000       1.00800           0
     24582 TIP3     758      TIP3     OH2      OT      -0.834000       15.9994           0
     24583 TIP3     758      TIP3     H1       HT       0.417000       1.00800           0
     24584 TIP3     758      TIP3     H2       HT       0.417000       1.00800           0
     24585 TIP3     759      TIP3     OH2      OT      -0.834000       15.9994           0
     24586 TIP3     759      TIP3     H1       HT       0.417000       1.00800           0
     24587 TIP3     759      TIP3     H2       HT       0.417000       1.00800           0
     24588 TIP3     760      TIP3     OH2      OT      -0.834000       15.9994           0
     24589 TIP3     760      TIP3     H1       HT       0.417000       1.00800           0
     24590 TIP3     760      TIP3     H2       HT       0.417000       1.00800           0
     24591 TIP3     761      TIP3     OH2      OT      -0.834000       15.9994           0
     24592 TIP3     761      TIP3     H1       HT       0.417000       1.00800           0
     24593 TIP3     761      TIP3     H2       HT       0.417000       1.00800           0
     24594 TIP3     762      TIP3     OH2      OT      -0.834000       15.9994           0
     24595 TIP3     762      TIP3     H1       HT       0.417000       1.00800           0
     24596 TIP3     762      TIP3     H2       HT       0.417000       1.00800           0
     24597 TIP3     763      TIP3     OH2      OT      -0.834000       15.9994           0
     24598 TIP3     763      TIP3     H1       HT       0.417000       1.00800           0
     24599 TIP3     763      TIP3     H2       HT       0.417000       1.00800           0
     24600 TIP3     764      TIP3     OH2      OT      -0.834000       15.9994           0
     24601 TIP3     764      TIP3     H1       HT       0.417000       1.00800           0
     24602 TIP3     764      TIP3     H2       HT       0.417000       1.00800           0
     24603 TIP3     765      TIP3     OH2      OT      -0.834000       15.9994           0
     24604 TIP3     765      TIP3     H1       HT       0.417000       1.00800           0
     24605 TIP3     765      TIP3     H2       HT       0.417000       1.00800           0
     24606 TIP3     766      TIP3     OH2      OT      -0.834000       15.9994           0
     24607 TIP3     766      TIP3     H1       HT       0.417000       1.00800           0
     24608 TIP3     766      TIP3     H2       HT       0.417000       1.00800           0
     24609 TIP3     767      TIP3     OH2      OT      -0.834000       15.9994           0
     24610 TIP3     767      TIP3     H1       HT       0.417000       1.00800           0
     24611 TIP3     767      TIP3     H2       HT       0.417000       1.00800           0
     24612 TIP3     768      TIP3     OH2      OT      -0.834000       15.9994           0
     24613 TIP3     768      TIP3     H1       HT       0.417000       1.00800           0
     24614 TIP3     768      TIP3     H2       HT       0.417000       1.00800           0
     24615 TIP3     769      TIP3     OH2      OT      -0.834000       15.9994           0
     24616 TIP3     769      TIP3     H1       HT       0.417000       1.00800           0
     24617 TIP3     769      TIP3     H2       HT       0.417000       1.00800           0
     24618 TIP3     770      TIP3     OH2      OT      -0.834000       15.9994           0
     24619 TIP3     770      TIP3     H1       HT       0.417000       1.00800           0
     24620 TIP3     770      TIP3     H2       HT       0.417000       1.00800           0
     24621 TIP3     771      TIP3     OH2      OT      -0.834000       15.9994           0
     24622 TIP3     771      TIP3     H1       HT       0.417000       1.00800           0
     24623 TIP3     771      TIP3     H2       HT       0.417000       1.00800           0
     24624 TIP3     772      TIP3     OH2      OT      -0.834000       15.9994           0
     24625 TIP3     772      TIP3     H1       HT       0.417000       1.00800           0
     24626 TIP3     772      TIP3     H2       HT       0.417000       1.00800           0
     24627 TIP3     773      TIP3     OH2      OT      -0.834000       15.9994           0
     24628 TIP3     773      TIP3     H1       HT       0.417000       1.00800           0
     24629 TIP3     773      TIP3     H2       HT       0.417000       1.00800           0
     24630 TIP3     774      TIP3     OH2      OT      -0.834000       15.9994           0
     24631 TIP3     774      TIP3     H1       HT       0.417000       1.00800           0
     24632 TIP3     774      TIP3     H2       HT       0.417000       1.00800           0
     24633 TIP3     775      TIP3     OH2      OT      -0.834000       15.9994           0
     24634 TIP3     775      TIP3     H1       HT       0.417000       1.00800           0
     24635 TIP3     775      TIP3     H2       HT       0.417000       1.00800           0
     24636 TIP3     776      TIP3     OH2      OT      -0.834000       15.9994           0
     24637 TIP3     776      TIP3     H1       HT       0.417000       1.00800           0
     24638 TIP3     776      TIP3     H2       HT       0.417000       1.00800           0
     24639 TIP3     777      TIP3     OH2      OT      -0.834000       15.9994           0
     24640 TIP3     777      TIP3     H1       HT       0.417000       1.00800           0
     24641 TIP3     777      TIP3     H2       HT       0.417000       1.00800           0
     24642 TIP3     778      TIP3     OH2      OT      -0.834000       15.9994           0
     24643 TIP3     778      TIP3     H1       HT       0.417000       1.00800           0
     24644 TIP3     778      TIP3     H2       HT       0.417000       1.00800           0
     24645 TIP3     779      TIP3     OH2      OT      -0.834000       15.9994           0
     24646 TIP3     779      TIP3     H1       HT       0.417000       1.00800           0
     24647 TIP3     779      TIP3     H2       HT       0.417000       1.00800           0
     24648 TIP3     780      TIP3     OH2      OT      -0.834000       15.9994           0
     24649 TIP3     780      TIP3     H1       HT       0.417000       1.00800           0
     24650 TIP3     780      TIP3     H2       HT       0.417000       1.00800           0
     24651 TIP3     781      TIP3     OH2      OT      -0.834000       15.9994           0
     24652 TIP3     781      TIP3     H1       HT       0.417000       1.00800           0
     24653 TIP3     781      TIP3     H2       HT       0.417000       1.00800           0
     24654 TIP3     782      TIP3     OH2      OT      -0.834000       15.9994           0
     24655 TIP3     782      TIP3     H1       HT       0.417000       1.00800           0
     24656 TIP3     782      TIP3     H2       HT       0.417000       1.00800           0
     24657 TIP3     783      TIP3     OH2      OT      -0.834000       15.9994           0
     24658 TIP3     783      TIP3     H1       HT       0.417000       1.00800           0
     24659 TIP3     783      TIP3     H2       HT       0.417000       1.00800           0
     24660 TIP3     784      TIP3     OH2      OT      -0.834000       15.9994           0
     24661 TIP3     784      TIP3     H1       HT       0.417000       1.00800           0
     24662 TIP3     784      TIP3     H2       HT       0.417000       1.00800           0
     24663 TIP3     785      TIP3     OH2      OT      -0.834000       15.9994           0
     24664 TIP3     785      TIP3     H1       HT       0.417000       1.00800           0
     24665 TIP3     785      TIP3     H2       HT       0.417000       1.00800           0
     24666 TIP3     786      TIP3     OH2      OT      -0.834000       15.9994           0
     24667 TIP3     786      TIP3     H1       HT       0.417000       1.00800           0
     24668 TIP3     786      TIP3     H2       HT       0.417000       1.00800           0
     24669 TIP3     787      TIP3     OH2      OT      -0.834000       15.9994           0
     24670 TIP3     787      TIP3     H1       HT       0.417000       1.00800           0
     24671 TIP3     787      TIP3     H2       HT       0.417000       1.00800           0
     24672 TIP3     788      TIP3     OH2      OT      -0.834000       15.9994           0
     24673 TIP3     788      TIP3     H1       HT       0.417000       1.00800           0
     24674 TIP3     788      TIP3     H2       HT       0.417000       1.00800           0
     24675 TIP3     789      TIP3     OH2      OT      -0.834000       15.9994           0
     24676 TIP3     789      TIP3     H1       HT       0.417000       1.00800           0
     24677 TIP3     789      TIP3     H2       HT       0.417000       1.00800           0
     24678 TIP3     790      TIP3     OH2      OT      -0.834000       15.9994           0
     24679 TIP3     790      TIP3     H1       HT       0.417000       1.00800           0
     24680 TIP3     790      TIP3     H2       HT       0.417000       1.00800           0
     24681 TIP3     791      TIP3     OH2      OT      -0.834000       15.9994           0
     24682 TIP3     791      TIP3     H1       HT       0.417000       1.00800           0
     24683 TIP3     791      TIP3     H2       HT       0.417000       1.00800           0
     24684 TIP3     792      TIP3     OH2      OT      -0.834000       15.9994           0
     24685 TIP3     792      TIP3     H1       HT       0.417000       1.00800           0
     24686 TIP3     792      TIP3     H2       HT       0.417000       1.00800           0
     24687 TIP3     793      TIP3     OH2      OT      -0.834000       15.9994           0
     24688 TIP3     793      TIP3     H1       HT       0.417000       1.00800           0
     24689 TIP3     793      TIP3     H2       HT       0.417000       1.00800           0
     24690 TIP3     794      TIP3     OH2      OT      -0.834000       15.9994           0
     24691 TIP3     794      TIP3     H1       HT       0.417000       1.00800           0
     24692 TIP3     794      TIP3     H2       HT       0.417000       1.00800           0
     24693 TIP3     795      TIP3     OH2      OT      -0.834000       15.9994           0
     24694 TIP3     795      TIP3     H1       HT       0.417000       1.00800           0
     24695 TIP3     795      TIP3     H2       HT       0.417000       1.00800           0
     24696 TIP3     796      TIP3     OH2      OT      -0.834000       15.9994           0
     24697 TIP3     796      TIP3     H1       HT       0.417000       1.00800           0
     24698 TIP3     796      TIP3     H2       HT       0.417000       1.00800           0
     24699 TIP3     797      TIP3     OH2      OT      -0.834000       15.9994           0
     24700 TIP3     797      TIP3     H1       HT       0.417000       1.00800           0
     24701 TIP3     797      TIP3     H2       HT       0.417000       1.00800           0
     24702 TIP3     798      TIP3     OH2      OT      -0.834000       15.9994           0
     24703 TIP3     798      TIP3     H1       HT       0.417000       1.00800           0
     24704 TIP3     798      TIP3     H2       HT       0.417000       1.00800           0
     24705 TIP3     799      TIP3     OH2      OT      -0.834000       15.9994           0
     24706 TIP3     799      TIP3     H1       HT       0.417000       1.00800           0
     24707 TIP3     799      TIP3     H2       HT       0.417000       1.00800           0
     24708 TIP3     800      TIP3     OH2      OT      -0.834000       15.9994           0
     24709 TIP3     800      TIP3     H1       HT       0.417000       1.00800           0
     24710 TIP3     800      TIP3     H2       HT       0.417000       1.00800           0
     24711 TIP3     801      TIP3     OH2      OT      -0.834000       15.9994           0
     24712 TIP3     801      TIP3     H1       HT       0.417000       1.00800           0
     24713 TIP3     801      TIP3     H2       HT       0.417000       1.00800           0
     24714 TIP3     802      TIP3     OH2      OT      -0.834000       15.9994           0
     24715 TIP3     802      TIP3     H1       HT       0.417000       1.00800           0
     24716 TIP3     802      TIP3     H2       HT       0.417000       1.00800           0
     24717 TIP3     803      TIP3     OH2      OT      -0.834000       15.9994           0
     24718 TIP3     803      TIP3     H1       HT       0.417000       1.00800           0
     24719 TIP3     803      TIP3     H2       HT       0.417000       1.00800           0
     24720 TIP3     804      TIP3     OH2      OT      -0.834000       15.9994           0
     24721 TIP3     804      TIP3     H1       HT       0.417000       1.00800           0
     24722 TIP3     804      TIP3     H2       HT       0.417000       1.00800           0
     24723 TIP3     805      TIP3     OH2      OT      -0.834000       15.9994           0
     24724 TIP3     805      TIP3     H1       HT       0.417000       1.00800           0
     24725 TIP3     805      TIP3     H2       HT       0.417000       1.00800           0
     24726 TIP3     806      TIP3     OH2      OT      -0.834000       15.9994           0
     24727 TIP3     806      TIP3     H1       HT       0.417000       1.00800           0
     24728 TIP3     806      TIP3     H2       HT       0.417000       1.00800           0
     24729 TIP3     807      TIP3     OH2      OT      -0.834000       15.9994           0
     24730 TIP3     807      TIP3     H1       HT       0.417000       1.00800           0
     24731 TIP3     807      TIP3     H2       HT       0.417000       1.00800           0
     24732 TIP3     808      TIP3     OH2      OT      -0.834000       15.9994           0
     24733 TIP3     808      TIP3     H1       HT       0.417000       1.00800           0
     24734 TIP3     808      TIP3     H2       HT       0.417000       1.00800           0
     24735 TIP3     809      TIP3     OH2      OT      -0.834000       15.9994           0
     24736 TIP3     809      TIP3     H1       HT       0.417000       1.00800           0
     24737 TIP3     809      TIP3     H2       HT       0.417000       1.00800           0
     24738 TIP3     810      TIP3     OH2      OT      -0.834000       15.9994           0
     24739 TIP3     810      TIP3     H1       HT       0.417000       1.00800           0
     24740 TIP3     810      TIP3     H2       HT       0.417000       1.00800           0
     24741 TIP3     811      TIP3     OH2      OT      -0.834000       15.9994           0
     24742 TIP3     811      TIP3     H1       HT       0.417000       1.00800           0
     24743 TIP3     811      TIP3     H2       HT       0.417000       1.00800           0
     24744 TIP3     812      TIP3     OH2      OT      -0.834000       15.9994           0
     24745 TIP3     812      TIP3     H1       HT       0.417000       1.00800           0
     24746 TIP3     812      TIP3     H2       HT       0.417000       1.00800           0
     24747 TIP3     813      TIP3     OH2      OT      -0.834000       15.9994           0
     24748 TIP3     813      TIP3     H1       HT       0.417000       1.00800           0
     24749 TIP3     813      TIP3     H2       HT       0.417000       1.00800           0
     24750 TIP3     814      TIP3     OH2      OT      -0.834000       15.9994           0
     24751 TIP3     814      TIP3     H1       HT       0.417000       1.00800           0
     24752 TIP3     814      TIP3     H2       HT       0.417000       1.00800           0
     24753 TIP3     815      TIP3     OH2      OT      -0.834000       15.9994           0
     24754 TIP3     815      TIP3     H1       HT       0.417000       1.00800           0
     24755 TIP3     815      TIP3     H2       HT       0.417000       1.00800           0
     24756 TIP3     816      TIP3     OH2      OT      -0.834000       15.9994           0
     24757 TIP3     816      TIP3     H1       HT       0.417000       1.00800           0
     24758 TIP3     816      TIP3     H2       HT       0.417000       1.00800           0
     24759 TIP3     817      TIP3     OH2      OT      -0.834000       15.9994           0
     24760 TIP3     817      TIP3     H1       HT       0.417000       1.00800           0
     24761 TIP3     817      TIP3     H2       HT       0.417000       1.00800           0
     24762 TIP3     818      TIP3     OH2      OT      -0.834000       15.9994           0
     24763 TIP3     818      TIP3     H1       HT       0.417000       1.00800           0
     24764 TIP3     818      TIP3     H2       HT       0.417000       1.00800           0
     24765 TIP3     819      TIP3     OH2      OT      -0.834000       15.9994           0
     24766 TIP3     819      TIP3     H1       HT       0.417000       1.00800           0
     24767 TIP3     819      TIP3     H2       HT       0.417000       1.00800           0
     24768 TIP3     820      TIP3     OH2      OT      -0.834000       15.9994           0
     24769 TIP3     820      TIP3     H1       HT       0.417000       1.00800           0
     24770 TIP3     820      TIP3     H2       HT       0.417000       1.00800           0
     24771 TIP3     821      TIP3     OH2      OT      -0.834000       15.9994           0
     24772 TIP3     821      TIP3     H1       HT       0.417000       1.00800           0
     24773 TIP3     821      TIP3     H2       HT       0.417000       1.00800           0
     24774 TIP3     822      TIP3     OH2      OT      -0.834000       15.9994           0
     24775 TIP3     822      TIP3     H1       HT       0.417000       1.00800           0
     24776 TIP3     822      TIP3     H2       HT       0.417000       1.00800           0
     24777 TIP3     823      TIP3     OH2      OT      -0.834000       15.9994           0
     24778 TIP3     823      TIP3     H1       HT       0.417000       1.00800           0
     24779 TIP3     823      TIP3     H2       HT       0.417000       1.00800           0
     24780 TIP3     824      TIP3     OH2      OT      -0.834000       15.9994           0
     24781 TIP3     824      TIP3     H1       HT       0.417000       1.00800           0
     24782 TIP3     824      TIP3     H2       HT       0.417000       1.00800           0
     24783 TIP3     825      TIP3     OH2      OT      -0.834000       15.9994           0
     24784 TIP3     825      TIP3     H1       HT       0.417000       1.00800           0
     24785 TIP3     825      TIP3     H2       HT       0.417000       1.00800           0
     24786 TIP3     826      TIP3     OH2      OT      -0.834000       15.9994           0
     24787 TIP3     826      TIP3     H1       HT       0.417000       1.00800           0
     24788 TIP3     826      TIP3     H2       HT       0.417000       1.00800           0
     24789 TIP3     827      TIP3     OH2      OT      -0.834000       15.9994           0
     24790 TIP3     827      TIP3     H1       HT       0.417000       1.00800           0
     24791 TIP3     827      TIP3     H2       HT       0.417000       1.00800           0
     24792 TIP3     828      TIP3     OH2      OT      -0.834000       15.9994           0
     24793 TIP3     828      TIP3     H1       HT       0.417000       1.00800           0
     24794 TIP3     828      TIP3     H2       HT       0.417000       1.00800           0
     24795 TIP3     829      TIP3     OH2      OT      -0.834000       15.9994           0
     24796 TIP3     829      TIP3     H1       HT       0.417000       1.00800           0
     24797 TIP3     829      TIP3     H2       HT       0.417000       1.00800           0
     24798 TIP3     830      TIP3     OH2      OT      -0.834000       15.9994           0
     24799 TIP3     830      TIP3     H1       HT       0.417000       1.00800           0
     24800 TIP3     830      TIP3     H2       HT       0.417000       1.00800           0
     24801 TIP3     831      TIP3     OH2      OT      -0.834000       15.9994           0
     24802 TIP3     831      TIP3     H1       HT       0.417000       1.00800           0
     24803 TIP3     831      TIP3     H2       HT       0.417000       1.00800           0
     24804 TIP3     832      TIP3     OH2      OT      -0.834000       15.9994           0
     24805 TIP3     832      TIP3     H1       HT       0.417000       1.00800           0
     24806 TIP3     832      TIP3     H2       HT       0.417000       1.00800           0
     24807 TIP3     833      TIP3     OH2      OT      -0.834000       15.9994           0
     24808 TIP3     833      TIP3     H1       HT       0.417000       1.00800           0
     24809 TIP3     833      TIP3     H2       HT       0.417000       1.00800           0
     24810 TIP3     834      TIP3     OH2      OT      -0.834000       15.9994           0
     24811 TIP3     834      TIP3     H1       HT       0.417000       1.00800           0
     24812 TIP3     834      TIP3     H2       HT       0.417000       1.00800           0
     24813 TIP3     835      TIP3     OH2      OT      -0.834000       15.9994           0
     24814 TIP3     835      TIP3     H1       HT       0.417000       1.00800           0
     24815 TIP3     835      TIP3     H2       HT       0.417000       1.00800           0
     24816 TIP3     836      TIP3     OH2      OT      -0.834000       15.9994           0
     24817 TIP3     836      TIP3     H1       HT       0.417000       1.00800           0
     24818 TIP3     836      TIP3     H2       HT       0.417000       1.00800           0
     24819 TIP3     837      TIP3     OH2      OT      -0.834000       15.9994           0
     24820 TIP3     837      TIP3     H1       HT       0.417000       1.00800           0
     24821 TIP3     837      TIP3     H2       HT       0.417000       1.00800           0
     24822 TIP3     838      TIP3     OH2      OT      -0.834000       15.9994           0
     24823 TIP3     838      TIP3     H1       HT       0.417000       1.00800           0
     24824 TIP3     838      TIP3     H2       HT       0.417000       1.00800           0
     24825 TIP3     839      TIP3     OH2      OT      -0.834000       15.9994           0
     24826 TIP3     839      TIP3     H1       HT       0.417000       1.00800           0
     24827 TIP3     839      TIP3     H2       HT       0.417000       1.00800           0
     24828 TIP3     840      TIP3     OH2      OT      -0.834000       15.9994           0
     24829 TIP3     840      TIP3     H1       HT       0.417000       1.00800           0
     24830 TIP3     840      TIP3     H2       HT       0.417000       1.00800           0
     24831 TIP3     841      TIP3     OH2      OT      -0.834000       15.9994           0
     24832 TIP3     841      TIP3     H1       HT       0.417000       1.00800           0
     24833 TIP3     841      TIP3     H2       HT       0.417000       1.00800           0
     24834 TIP3     842      TIP3     OH2      OT      -0.834000       15.9994           0
     24835 TIP3     842      TIP3     H1       HT       0.417000       1.00800           0
     24836 TIP3     842      TIP3     H2       HT       0.417000       1.00800           0
     24837 TIP3     843      TIP3     OH2      OT      -0.834000       15.9994           0
     24838 TIP3     843      TIP3     H1       HT       0.417000       1.00800           0
     24839 TIP3     843      TIP3     H2       HT       0.417000       1.00800           0
     24840 TIP3     844      TIP3     OH2      OT      -0.834000       15.9994           0
     24841 TIP3     844      TIP3     H1       HT       0.417000       1.00800           0
     24842 TIP3     844      TIP3     H2       HT       0.417000       1.00800           0
     24843 TIP3     845      TIP3     OH2      OT      -0.834000       15.9994           0
     24844 TIP3     845      TIP3     H1       HT       0.417000       1.00800           0
     24845 TIP3     845      TIP3     H2       HT       0.417000       1.00800           0
     24846 TIP3     846      TIP3     OH2      OT      -0.834000       15.9994           0
     24847 TIP3     846      TIP3     H1       HT       0.417000       1.00800           0
     24848 TIP3     846      TIP3     H2       HT       0.417000       1.00800           0
     24849 TIP3     847      TIP3     OH2      OT      -0.834000       15.9994           0
     24850 TIP3     847      TIP3     H1       HT       0.417000       1.00800           0
     24851 TIP3     847      TIP3     H2       HT       0.417000       1.00800           0
     24852 TIP3     848      TIP3     OH2      OT      -0.834000       15.9994           0
     24853 TIP3     848      TIP3     H1       HT       0.417000       1.00800           0
     24854 TIP3     848      TIP3     H2       HT       0.417000       1.00800           0
     24855 TIP3     849      TIP3     OH2      OT      -0.834000       15.9994           0
     24856 TIP3     849      TIP3     H1       HT       0.417000       1.00800           0
     24857 TIP3     849      TIP3     H2       HT       0.417000       1.00800           0
     24858 TIP3     850      TIP3     OH2      OT      -0.834000       15.9994           0
     24859 TIP3     850      TIP3     H1       HT       0.417000       1.00800           0
     24860 TIP3     850      TIP3     H2       HT       0.417000       1.00800           0
     24861 TIP3     851      TIP3     OH2      OT      -0.834000       15.9994           0
     24862 TIP3     851      TIP3     H1       HT       0.417000       1.00800           0
     24863 TIP3     851      TIP3     H2       HT       0.417000       1.00800           0
     24864 TIP3     852      TIP3     OH2      OT      -0.834000       15.9994           0
     24865 TIP3     852      TIP3     H1       HT       0.417000       1.00800           0
     24866 TIP3     852      TIP3     H2       HT       0.417000       1.00800           0
     24867 TIP3     853      TIP3     OH2      OT      -0.834000       15.9994           0
     24868 TIP3     853      TIP3     H1       HT       0.417000       1.00800           0
     24869 TIP3     853      TIP3     H2       HT       0.417000       1.00800           0
     24870 TIP3     854      TIP3     OH2      OT      -0.834000       15.9994           0
     24871 TIP3     854      TIP3     H1       HT       0.417000       1.00800           0
     24872 TIP3     854      TIP3     H2       HT       0.417000       1.00800           0
     24873 TIP3     855      TIP3     OH2      OT      -0.834000       15.9994           0
     24874 TIP3     855      TIP3     H1       HT       0.417000       1.00800           0
     24875 TIP3     855      TIP3     H2       HT       0.417000       1.00800           0
     24876 TIP3     856      TIP3     OH2      OT      -0.834000       15.9994           0
     24877 TIP3     856      TIP3     H1       HT       0.417000       1.00800           0
     24878 TIP3     856      TIP3     H2       HT       0.417000       1.00800           0
     24879 TIP3     857      TIP3     OH2      OT      -0.834000       15.9994           0
     24880 TIP3     857      TIP3     H1       HT       0.417000       1.00800           0
     24881 TIP3     857      TIP3     H2       HT       0.417000       1.00800           0
     24882 TIP3     858      TIP3     OH2      OT      -0.834000       15.9994           0
     24883 TIP3     858      TIP3     H1       HT       0.417000       1.00800           0
     24884 TIP3     858      TIP3     H2       HT       0.417000       1.00800           0
     24885 TIP3     859      TIP3     OH2      OT      -0.834000       15.9994           0
     24886 TIP3     859      TIP3     H1       HT       0.417000       1.00800           0
     24887 TIP3     859      TIP3     H2       HT       0.417000       1.00800           0
     24888 TIP3     860      TIP3     OH2      OT      -0.834000       15.9994           0
     24889 TIP3     860      TIP3     H1       HT       0.417000       1.00800           0
     24890 TIP3     860      TIP3     H2       HT       0.417000       1.00800           0
     24891 TIP3     861      TIP3     OH2      OT      -0.834000       15.9994           0
     24892 TIP3     861      TIP3     H1       HT       0.417000       1.00800           0
     24893 TIP3     861      TIP3     H2       HT       0.417000       1.00800           0
     24894 TIP3     862      TIP3     OH2      OT      -0.834000       15.9994           0
     24895 TIP3     862      TIP3     H1       HT       0.417000       1.00800           0
     24896 TIP3     862      TIP3     H2       HT       0.417000       1.00800           0
     24897 TIP3     863      TIP3     OH2      OT      -0.834000       15.9994           0
     24898 TIP3     863      TIP3     H1       HT       0.417000       1.00800           0
     24899 TIP3     863      TIP3     H2       HT       0.417000       1.00800           0
     24900 TIP3     864      TIP3     OH2      OT      -0.834000       15.9994           0
     24901 TIP3     864      TIP3     H1       HT       0.417000       1.00800           0
     24902 TIP3     864      TIP3     H2       HT       0.417000       1.00800           0
     24903 TIP3     865      TIP3     OH2      OT      -0.834000       15.9994           0
     24904 TIP3     865      TIP3     H1       HT       0.417000       1.00800           0
     24905 TIP3     865      TIP3     H2       HT       0.417000       1.00800           0
     24906 TIP3     866      TIP3     OH2      OT      -0.834000       15.9994           0
     24907 TIP3     866      TIP3     H1       HT       0.417000       1.00800           0
     24908 TIP3     866      TIP3     H2       HT       0.417000       1.00800           0
     24909 TIP3     867      TIP3     OH2      OT      -0.834000       15.9994           0
     24910 TIP3     867      TIP3     H1       HT       0.417000       1.00800           0
     24911 TIP3     867      TIP3     H2       HT       0.417000       1.00800           0
     24912 TIP3     868      TIP3     OH2      OT      -0.834000       15.9994           0
     24913 TIP3     868      TIP3     H1       HT       0.417000       1.00800           0
     24914 TIP3     868      TIP3     H2       HT       0.417000       1.00800           0
     24915 TIP3     869      TIP3     OH2      OT      -0.834000       15.9994           0
     24916 TIP3     869      TIP3     H1       HT       0.417000       1.00800           0
     24917 TIP3     869      TIP3     H2       HT       0.417000       1.00800           0
     24918 TIP3     870      TIP3     OH2      OT      -0.834000       15.9994           0
     24919 TIP3     870      TIP3     H1       HT       0.417000       1.00800           0
     24920 TIP3     870      TIP3     H2       HT       0.417000       1.00800           0
     24921 TIP3     871      TIP3     OH2      OT      -0.834000       15.9994           0
     24922 TIP3     871      TIP3     H1       HT       0.417000       1.00800           0
     24923 TIP3     871      TIP3     H2       HT       0.417000       1.00800           0
     24924 TIP3     872      TIP3     OH2      OT      -0.834000       15.9994           0
     24925 TIP3     872      TIP3     H1       HT       0.417000       1.00800           0
     24926 TIP3     872      TIP3     H2       HT       0.417000       1.00800           0
     24927 TIP3     873      TIP3     OH2      OT      -0.834000       15.9994           0
     24928 TIP3     873      TIP3     H1       HT       0.417000       1.00800           0
     24929 TIP3     873      TIP3     H2       HT       0.417000       1.00800           0
     24930 TIP3     874      TIP3     OH2      OT      -0.834000       15.9994           0
     24931 TIP3     874      TIP3     H1       HT       0.417000       1.00800           0
     24932 TIP3     874      TIP3     H2       HT       0.417000       1.00800           0
     24933 TIP3     875      TIP3     OH2      OT      -0.834000       15.9994           0
     24934 TIP3     875      TIP3     H1       HT       0.417000       1.00800           0
     24935 TIP3     875      TIP3     H2       HT       0.417000       1.00800           0
     24936 TIP3     876      TIP3     OH2      OT      -0.834000       15.9994           0
     24937 TIP3     876      TIP3     H1       HT       0.417000       1.00800           0
     24938 TIP3     876      TIP3     H2       HT       0.417000       1.00800           0
     24939 TIP3     877      TIP3     OH2      OT      -0.834000       15.9994           0
     24940 TIP3     877      TIP3     H1       HT       0.417000       1.00800           0
     24941 TIP3     877      TIP3     H2       HT       0.417000       1.00800           0
     24942 TIP3     878      TIP3     OH2      OT      -0.834000       15.9994           0
     24943 TIP3     878      TIP3     H1       HT       0.417000       1.00800           0
     24944 TIP3     878      TIP3     H2       HT       0.417000       1.00800           0
     24945 TIP3     879      TIP3     OH2      OT      -0.834000       15.9994           0
     24946 TIP3     879      TIP3     H1       HT       0.417000       1.00800           0
     24947 TIP3     879      TIP3     H2       HT       0.417000       1.00800           0
     24948 TIP3     880      TIP3     OH2      OT      -0.834000       15.9994           0
     24949 TIP3     880      TIP3     H1       HT       0.417000       1.00800           0
     24950 TIP3     880      TIP3     H2       HT       0.417000       1.00800           0
     24951 TIP3     881      TIP3     OH2      OT      -0.834000       15.9994           0
     24952 TIP3     881      TIP3     H1       HT       0.417000       1.00800           0
     24953 TIP3     881      TIP3     H2       HT       0.417000       1.00800           0
     24954 TIP3     882      TIP3     OH2      OT      -0.834000       15.9994           0
     24955 TIP3     882      TIP3     H1       HT       0.417000       1.00800           0
     24956 TIP3     882      TIP3     H2       HT       0.417000       1.00800           0
     24957 TIP3     883      TIP3     OH2      OT      -0.834000       15.9994           0
     24958 TIP3     883      TIP3     H1       HT       0.417000       1.00800           0
     24959 TIP3     883      TIP3     H2       HT       0.417000       1.00800           0
     24960 TIP3     884      TIP3     OH2      OT      -0.834000       15.9994           0
     24961 TIP3     884      TIP3     H1       HT       0.417000       1.00800           0
     24962 TIP3     884      TIP3     H2       HT       0.417000       1.00800           0
     24963 TIP3     885      TIP3     OH2      OT      -0.834000       15.9994           0
     24964 TIP3     885      TIP3     H1       HT       0.417000       1.00800           0
     24965 TIP3     885      TIP3     H2       HT       0.417000       1.00800           0
     24966 TIP3     886      TIP3     OH2      OT      -0.834000       15.9994           0
     24967 TIP3     886      TIP3     H1       HT       0.417000       1.00800           0
     24968 TIP3     886      TIP3     H2       HT       0.417000       1.00800           0
     24969 TIP3     887      TIP3     OH2      OT      -0.834000       15.9994           0
     24970 TIP3     887      TIP3     H1       HT       0.417000       1.00800           0
     24971 TIP3     887      TIP3     H2       HT       0.417000       1.00800           0
     24972 TIP3     888      TIP3     OH2      OT      -0.834000       15.9994           0
     24973 TIP3     888      TIP3     H1       HT       0.417000       1.00800           0
     24974 TIP3     888      TIP3     H2       HT       0.417000       1.00800           0
     24975 TIP3     889      TIP3     OH2      OT      -0.834000       15.9994           0
     24976 TIP3     889      TIP3     H1       HT       0.417000       1.00800           0
     24977 TIP3     889      TIP3     H2       HT       0.417000       1.00800           0
     24978 TIP3     890      TIP3     OH2      OT      -0.834000       15.9994           0
     24979 TIP3     890      TIP3     H1       HT       0.417000       1.00800           0
     24980 TIP3     890      TIP3     H2       HT       0.417000       1.00800           0
     24981 TIP3     891      TIP3     OH2      OT      -0.834000       15.9994           0
     24982 TIP3     891      TIP3     H1       HT       0.417000       1.00800           0
     24983 TIP3     891      TIP3     H2       HT       0.417000       1.00800           0
     24984 TIP3     892      TIP3     OH2      OT      -0.834000       15.9994           0
     24985 TIP3     892      TIP3     H1       HT       0.417000       1.00800           0
     24986 TIP3     892      TIP3     H2       HT       0.417000       1.00800           0
     24987 TIP3     893      TIP3     OH2      OT      -0.834000       15.9994           0
     24988 TIP3     893      TIP3     H1       HT       0.417000       1.00800           0
     24989 TIP3     893      TIP3     H2       HT       0.417000       1.00800           0
     24990 TIP3     894      TIP3     OH2      OT      -0.834000       15.9994           0
     24991 TIP3     894      TIP3     H1       HT       0.417000       1.00800           0
     24992 TIP3     894      TIP3     H2       HT       0.417000       1.00800           0
     24993 TIP3     895      TIP3     OH2      OT      -0.834000       15.9994           0
     24994 TIP3     895      TIP3     H1       HT       0.417000       1.00800           0
     24995 TIP3     895      TIP3     H2       HT       0.417000       1.00800           0
     24996 TIP3     896      TIP3     OH2      OT      -0.834000       15.9994           0
     24997 TIP3     896      TIP3     H1       HT       0.417000       1.00800           0
     24998 TIP3     896      TIP3     H2       HT       0.417000       1.00800           0
     24999 TIP3     897      TIP3     OH2      OT      -0.834000       15.9994           0
     25000 TIP3     897      TIP3     H1       HT       0.417000       1.00800           0
     25001 TIP3     897      TIP3     H2       HT       0.417000       1.00800           0
     25002 TIP3     898      TIP3     OH2      OT      -0.834000       15.9994           0
     25003 TIP3     898      TIP3     H1       HT       0.417000       1.00800           0
     25004 TIP3     898      TIP3     H2       HT       0.417000       1.00800           0
     25005 TIP3     899      TIP3     OH2      OT      -0.834000       15.9994           0
     25006 TIP3     899      TIP3     H1       HT       0.417000       1.00800           0
     25007 TIP3     899      TIP3     H2       HT       0.417000       1.00800           0
     25008 TIP3     900      TIP3     OH2      OT      -0.834000       15.9994           0
     25009 TIP3     900      TIP3     H1       HT       0.417000       1.00800           0
     25010 TIP3     900      TIP3     H2       HT       0.417000       1.00800           0
     25011 TIP3     901      TIP3     OH2      OT      -0.834000       15.9994           0
     25012 TIP3     901      TIP3     H1       HT       0.417000       1.00800           0
     25013 TIP3     901      TIP3     H2       HT       0.417000       1.00800           0
     25014 TIP3     902      TIP3     OH2      OT      -0.834000       15.9994           0
     25015 TIP3     902      TIP3     H1       HT       0.417000       1.00800           0
     25016 TIP3     902      TIP3     H2       HT       0.417000       1.00800           0
     25017 TIP3     903      TIP3     OH2      OT      -0.834000       15.9994           0
     25018 TIP3     903      TIP3     H1       HT       0.417000       1.00800           0
     25019 TIP3     903      TIP3     H2       HT       0.417000       1.00800           0
     25020 TIP3     904      TIP3     OH2      OT      -0.834000       15.9994           0
     25021 TIP3     904      TIP3     H1       HT       0.417000       1.00800           0
     25022 TIP3     904      TIP3     H2       HT       0.417000       1.00800           0
     25023 TIP3     905      TIP3     OH2      OT      -0.834000       15.9994           0
     25024 TIP3     905      TIP3     H1       HT       0.417000       1.00800           0
     25025 TIP3     905      TIP3     H2       HT       0.417000       1.00800           0
     25026 TIP3     906      TIP3     OH2      OT      -0.834000       15.9994           0
     25027 TIP3     906      TIP3     H1       HT       0.417000       1.00800           0
     25028 TIP3     906      TIP3     H2       HT       0.417000       1.00800           0
     25029 TIP3     907      TIP3     OH2      OT      -0.834000       15.9994           0
     25030 TIP3     907      TIP3     H1       HT       0.417000       1.00800           0
     25031 TIP3     907      TIP3     H2       HT       0.417000       1.00800           0
     25032 TIP3     908      TIP3     OH2      OT      -0.834000       15.9994           0
     25033 TIP3     908      TIP3     H1       HT       0.417000       1.00800           0
     25034 TIP3     908      TIP3     H2       HT       0.417000       1.00800           0
     25035 TIP3     909      TIP3     OH2      OT      -0.834000       15.9994           0
     25036 TIP3     909      TIP3     H1       HT       0.417000       1.00800           0
     25037 TIP3     909      TIP3     H2       HT       0.417000       1.00800           0
     25038 TIP3     910      TIP3     OH2      OT      -0.834000       15.9994           0
     25039 TIP3     910      TIP3     H1       HT       0.417000       1.00800           0
     25040 TIP3     910      TIP3     H2       HT       0.417000       1.00800           0
     25041 TIP3     911      TIP3     OH2      OT      -0.834000       15.9994           0
     25042 TIP3     911      TIP3     H1       HT       0.417000       1.00800           0
     25043 TIP3     911      TIP3     H2       HT       0.417000       1.00800           0
     25044 TIP3     912      TIP3     OH2      OT      -0.834000       15.9994           0
     25045 TIP3     912      TIP3     H1       HT       0.417000       1.00800           0
     25046 TIP3     912      TIP3     H2       HT       0.417000       1.00800           0
     25047 TIP3     913      TIP3     OH2      OT      -0.834000       15.9994           0
     25048 TIP3     913      TIP3     H1       HT       0.417000       1.00800           0
     25049 TIP3     913      TIP3     H2       HT       0.417000       1.00800           0
     25050 TIP3     914      TIP3     OH2      OT      -0.834000       15.9994           0
     25051 TIP3     914      TIP3     H1       HT       0.417000       1.00800           0
     25052 TIP3     914      TIP3     H2       HT       0.417000       1.00800           0
     25053 TIP3     915      TIP3     OH2      OT      -0.834000       15.9994           0
     25054 TIP3     915      TIP3     H1       HT       0.417000       1.00800           0
     25055 TIP3     915      TIP3     H2       HT       0.417000       1.00800           0
     25056 TIP3     916      TIP3     OH2      OT      -0.834000       15.9994           0
     25057 TIP3     916      TIP3     H1       HT       0.417000       1.00800           0
     25058 TIP3     916      TIP3     H2       HT       0.417000       1.00800           0
     25059 TIP3     917      TIP3     OH2      OT      -0.834000       15.9994           0
     25060 TIP3     917      TIP3     H1       HT       0.417000       1.00800           0
     25061 TIP3     917      TIP3     H2       HT       0.417000       1.00800           0
     25062 TIP3     918      TIP3     OH2      OT      -0.834000       15.9994           0
     25063 TIP3     918      TIP3     H1       HT       0.417000       1.00800           0
     25064 TIP3     918      TIP3     H2       HT       0.417000       1.00800           0
     25065 TIP3     919      TIP3     OH2      OT      -0.834000       15.9994           0
     25066 TIP3     919      TIP3     H1       HT       0.417000       1.00800           0
     25067 TIP3     919      TIP3     H2       HT       0.417000       1.00800           0
     25068 TIP3     920      TIP3     OH2      OT      -0.834000       15.9994           0
     25069 TIP3     920      TIP3     H1       HT       0.417000       1.00800           0
     25070 TIP3     920      TIP3     H2       HT       0.417000       1.00800           0
     25071 TIP3     921      TIP3     OH2      OT      -0.834000       15.9994           0
     25072 TIP3     921      TIP3     H1       HT       0.417000       1.00800           0
     25073 TIP3     921      TIP3     H2       HT       0.417000       1.00800           0
     25074 TIP3     922      TIP3     OH2      OT      -0.834000       15.9994           0
     25075 TIP3     922      TIP3     H1       HT       0.417000       1.00800           0
     25076 TIP3     922      TIP3     H2       HT       0.417000       1.00800           0
     25077 TIP3     923      TIP3     OH2      OT      -0.834000       15.9994           0
     25078 TIP3     923      TIP3     H1       HT       0.417000       1.00800           0
     25079 TIP3     923      TIP3     H2       HT       0.417000       1.00800           0
     25080 TIP3     924      TIP3     OH2      OT      -0.834000       15.9994           0
     25081 TIP3     924      TIP3     H1       HT       0.417000       1.00800           0
     25082 TIP3     924      TIP3     H2       HT       0.417000       1.00800           0
     25083 TIP3     925      TIP3     OH2      OT      -0.834000       15.9994           0
     25084 TIP3     925      TIP3     H1       HT       0.417000       1.00800           0
     25085 TIP3     925      TIP3     H2       HT       0.417000       1.00800           0
     25086 TIP3     926      TIP3     OH2      OT      -0.834000       15.9994           0
     25087 TIP3     926      TIP3     H1       HT       0.417000       1.00800           0
     25088 TIP3     926      TIP3     H2       HT       0.417000       1.00800           0
     25089 TIP3     927      TIP3     OH2      OT      -0.834000       15.9994           0
     25090 TIP3     927      TIP3     H1       HT       0.417000       1.00800           0
     25091 TIP3     927      TIP3     H2       HT       0.417000       1.00800           0
     25092 TIP3     928      TIP3     OH2      OT      -0.834000       15.9994           0
     25093 TIP3     928      TIP3     H1       HT       0.417000       1.00800           0
     25094 TIP3     928      TIP3     H2       HT       0.417000       1.00800           0
     25095 TIP3     929      TIP3     OH2      OT      -0.834000       15.9994           0
     25096 TIP3     929      TIP3     H1       HT       0.417000       1.00800           0
     25097 TIP3     929      TIP3     H2       HT       0.417000       1.00800           0
     25098 TIP3     930      TIP3     OH2      OT      -0.834000       15.9994           0
     25099 TIP3     930      TIP3     H1       HT       0.417000       1.00800           0
     25100 TIP3     930      TIP3     H2       HT       0.417000       1.00800           0
     25101 TIP3     931      TIP3     OH2      OT      -0.834000       15.9994           0
     25102 TIP3     931      TIP3     H1       HT       0.417000       1.00800           0
     25103 TIP3     931      TIP3     H2       HT       0.417000       1.00800           0
     25104 TIP3     932      TIP3     OH2      OT      -0.834000       15.9994           0
     25105 TIP3     932      TIP3     H1       HT       0.417000       1.00800           0
     25106 TIP3     932      TIP3     H2       HT       0.417000       1.00800           0
     25107 TIP3     933      TIP3     OH2      OT      -0.834000       15.9994           0
     25108 TIP3     933      TIP3     H1       HT       0.417000       1.00800           0
     25109 TIP3     933      TIP3     H2       HT       0.417000       1.00800           0
     25110 TIP3     934      TIP3     OH2      OT      -0.834000       15.9994           0
     25111 TIP3     934      TIP3     H1       HT       0.417000       1.00800           0
     25112 TIP3     934      TIP3     H2       HT       0.417000       1.00800           0
     25113 TIP3     935      TIP3     OH2      OT      -0.834000       15.9994           0
     25114 TIP3     935      TIP3     H1       HT       0.417000       1.00800           0
     25115 TIP3     935      TIP3     H2       HT       0.417000       1.00800           0
     25116 TIP3     936      TIP3     OH2      OT      -0.834000       15.9994           0
     25117 TIP3     936      TIP3     H1       HT       0.417000       1.00800           0
     25118 TIP3     936      TIP3     H2       HT       0.417000       1.00800           0
     25119 TIP3     937      TIP3     OH2      OT      -0.834000       15.9994           0
     25120 TIP3     937      TIP3     H1       HT       0.417000       1.00800           0
     25121 TIP3     937      TIP3     H2       HT       0.417000       1.00800           0
     25122 TIP3     938      TIP3     OH2      OT      -0.834000       15.9994           0
     25123 TIP3     938      TIP3     H1       HT       0.417000       1.00800           0
     25124 TIP3     938      TIP3     H2       HT       0.417000       1.00800           0
     25125 TIP3     939      TIP3     OH2      OT      -0.834000       15.9994           0
     25126 TIP3     939      TIP3     H1       HT       0.417000       1.00800           0
     25127 TIP3     939      TIP3     H2       HT       0.417000       1.00800           0
     25128 TIP3     940      TIP3     OH2      OT      -0.834000       15.9994           0
     25129 TIP3     940      TIP3     H1       HT       0.417000       1.00800           0
     25130 TIP3     940      TIP3     H2       HT       0.417000       1.00800           0
     25131 TIP3     941      TIP3     OH2      OT      -0.834000       15.9994           0
     25132 TIP3     941      TIP3     H1       HT       0.417000       1.00800           0
     25133 TIP3     941      TIP3     H2       HT       0.417000       1.00800           0
     25134 TIP3     942      TIP3     OH2      OT      -0.834000       15.9994           0
     25135 TIP3     942      TIP3     H1       HT       0.417000       1.00800           0
     25136 TIP3     942      TIP3     H2       HT       0.417000       1.00800           0
     25137 TIP3     943      TIP3     OH2      OT      -0.834000       15.9994           0
     25138 TIP3     943      TIP3     H1       HT       0.417000       1.00800           0
     25139 TIP3     943      TIP3     H2       HT       0.417000       1.00800           0
     25140 TIP3     944      TIP3     OH2      OT      -0.834000       15.9994           0
     25141 TIP3     944      TIP3     H1       HT       0.417000       1.00800           0
     25142 TIP3     944      TIP3     H2       HT       0.417000       1.00800           0
     25143 TIP3     945      TIP3     OH2      OT      -0.834000       15.9994           0
     25144 TIP3     945      TIP3     H1       HT       0.417000       1.00800           0
     25145 TIP3     945      TIP3     H2       HT       0.417000       1.00800           0
     25146 TIP3     946      TIP3     OH2      OT      -0.834000       15.9994           0
     25147 TIP3     946      TIP3     H1       HT       0.417000       1.00800           0
     25148 TIP3     946      TIP3     H2       HT       0.417000       1.00800           0
     25149 TIP3     947      TIP3     OH2      OT      -0.834000       15.9994           0
     25150 TIP3     947      TIP3     H1       HT       0.417000       1.00800           0
     25151 TIP3     947      TIP3     H2       HT       0.417000       1.00800           0
     25152 TIP3     948      TIP3     OH2      OT      -0.834000       15.9994           0
     25153 TIP3     948      TIP3     H1       HT       0.417000       1.00800           0
     25154 TIP3     948      TIP3     H2       HT       0.417000       1.00800           0
     25155 TIP3     949      TIP3     OH2      OT      -0.834000       15.9994           0
     25156 TIP3     949      TIP3     H1       HT       0.417000       1.00800           0
     25157 TIP3     949      TIP3     H2       HT       0.417000       1.00800           0
     25158 TIP3     950      TIP3     OH2      OT      -0.834000       15.9994           0
     25159 TIP3     950      TIP3     H1       HT       0.417000       1.00800           0
     25160 TIP3     950      TIP3     H2       HT       0.417000       1.00800           0
     25161 TIP3     951      TIP3     OH2      OT      -0.834000       15.9994           0
     25162 TIP3     951      TIP3     H1       HT       0.417000       1.00800           0
     25163 TIP3     951      TIP3     H2       HT       0.417000       1.00800           0
     25164 TIP3     952      TIP3     OH2      OT      -0.834000       15.9994           0
     25165 TIP3     952      TIP3     H1       HT       0.417000       1.00800           0
     25166 TIP3     952      TIP3     H2       HT       0.417000       1.00800           0
     25167 TIP3     953      TIP3     OH2      OT      -0.834000       15.9994           0
     25168 TIP3     953      TIP3     H1       HT       0.417000       1.00800           0
     25169 TIP3     953      TIP3     H2       HT       0.417000       1.00800           0
     25170 TIP3     954      TIP3     OH2      OT      -0.834000       15.9994           0
     25171 TIP3     954      TIP3     H1       HT       0.417000       1.00800           0
     25172 TIP3     954      TIP3     H2       HT       0.417000       1.00800           0
     25173 TIP3     955      TIP3     OH2      OT      -0.834000       15.9994           0
     25174 TIP3     955      TIP3     H1       HT       0.417000       1.00800           0
     25175 TIP3     955      TIP3     H2       HT       0.417000       1.00800           0
     25176 TIP3     956      TIP3     OH2      OT      -0.834000       15.9994           0
     25177 TIP3     956      TIP3     H1       HT       0.417000       1.00800           0
     25178 TIP3     956      TIP3     H2       HT       0.417000       1.00800           0
     25179 TIP3     957      TIP3     OH2      OT      -0.834000       15.9994           0
     25180 TIP3     957      TIP3     H1       HT       0.417000       1.00800           0
     25181 TIP3     957      TIP3     H2       HT       0.417000       1.00800           0
     25182 TIP3     958      TIP3     OH2      OT      -0.834000       15.9994           0
     25183 TIP3     958      TIP3     H1       HT       0.417000       1.00800           0
     25184 TIP3     958      TIP3     H2       HT       0.417000       1.00800           0
     25185 TIP3     959      TIP3     OH2      OT      -0.834000       15.9994           0
     25186 TIP3     959      TIP3     H1       HT       0.417000       1.00800           0
     25187 TIP3     959      TIP3     H2       HT       0.417000       1.00800           0
     25188 TIP3     960      TIP3     OH2      OT      -0.834000       15.9994           0
     25189 TIP3     960      TIP3     H1       HT       0.417000       1.00800           0
     25190 TIP3     960      TIP3     H2       HT       0.417000       1.00800           0
     25191 TIP3     961      TIP3     OH2      OT      -0.834000       15.9994           0
     25192 TIP3     961      TIP3     H1       HT       0.417000       1.00800           0
     25193 TIP3     961      TIP3     H2       HT       0.417000       1.00800           0
     25194 TIP3     962      TIP3     OH2      OT      -0.834000       15.9994           0
     25195 TIP3     962      TIP3     H1       HT       0.417000       1.00800           0
     25196 TIP3     962      TIP3     H2       HT       0.417000       1.00800           0
     25197 TIP3     963      TIP3     OH2      OT      -0.834000       15.9994           0
     25198 TIP3     963      TIP3     H1       HT       0.417000       1.00800           0
     25199 TIP3     963      TIP3     H2       HT       0.417000       1.00800           0
     25200 TIP3     964      TIP3     OH2      OT      -0.834000       15.9994           0
     25201 TIP3     964      TIP3     H1       HT       0.417000       1.00800           0
     25202 TIP3     964      TIP3     H2       HT       0.417000       1.00800           0
     25203 TIP3     965      TIP3     OH2      OT      -0.834000       15.9994           0
     25204 TIP3     965      TIP3     H1       HT       0.417000       1.00800           0
     25205 TIP3     965      TIP3     H2       HT       0.417000       1.00800           0
     25206 TIP3     966      TIP3     OH2      OT      -0.834000       15.9994           0
     25207 TIP3     966      TIP3     H1       HT       0.417000       1.00800           0
     25208 TIP3     966      TIP3     H2       HT       0.417000       1.00800           0
     25209 TIP3     967      TIP3     OH2      OT      -0.834000       15.9994           0
     25210 TIP3     967      TIP3     H1       HT       0.417000       1.00800           0
     25211 TIP3     967      TIP3     H2       HT       0.417000       1.00800           0
     25212 TIP3     968      TIP3     OH2      OT      -0.834000       15.9994           0
     25213 TIP3     968      TIP3     H1       HT       0.417000       1.00800           0
     25214 TIP3     968      TIP3     H2       HT       0.417000       1.00800           0
     25215 TIP3     969      TIP3     OH2      OT      -0.834000       15.9994           0
     25216 TIP3     969      TIP3     H1       HT       0.417000       1.00800           0
     25217 TIP3     969      TIP3     H2       HT       0.417000       1.00800           0
     25218 TIP3     970      TIP3     OH2      OT      -0.834000       15.9994           0
     25219 TIP3     970      TIP3     H1       HT       0.417000       1.00800           0
     25220 TIP3     970      TIP3     H2       HT       0.417000       1.00800           0
     25221 TIP3     971      TIP3     OH2      OT      -0.834000       15.9994           0
     25222 TIP3     971      TIP3     H1       HT       0.417000       1.00800           0
     25223 TIP3     971      TIP3     H2       HT       0.417000       1.00800           0
     25224 TIP3     972      TIP3     OH2      OT      -0.834000       15.9994           0
     25225 TIP3     972      TIP3     H1       HT       0.417000       1.00800           0
     25226 TIP3     972      TIP3     H2       HT       0.417000       1.00800           0
     25227 TIP3     973      TIP3     OH2      OT      -0.834000       15.9994           0
     25228 TIP3     973      TIP3     H1       HT       0.417000       1.00800           0
     25229 TIP3     973      TIP3     H2       HT       0.417000       1.00800           0
     25230 TIP3     974      TIP3     OH2      OT      -0.834000       15.9994           0
     25231 TIP3     974      TIP3     H1       HT       0.417000       1.00800           0
     25232 TIP3     974      TIP3     H2       HT       0.417000       1.00800           0
     25233 TIP3     975      TIP3     OH2      OT      -0.834000       15.9994           0
     25234 TIP3     975      TIP3     H1       HT       0.417000       1.00800           0
     25235 TIP3     975      TIP3     H2       HT       0.417000       1.00800           0
     25236 TIP3     976      TIP3     OH2      OT      -0.834000       15.9994           0
     25237 TIP3     976      TIP3     H1       HT       0.417000       1.00800           0
     25238 TIP3     976      TIP3     H2       HT       0.417000       1.00800           0
     25239 TIP3     977      TIP3     OH2      OT      -0.834000       15.9994           0
     25240 TIP3     977      TIP3     H1       HT       0.417000       1.00800           0
     25241 TIP3     977      TIP3     H2       HT       0.417000       1.00800           0
     25242 TIP3     978      TIP3     OH2      OT      -0.834000       15.9994           0
     25243 TIP3     978      TIP3     H1       HT       0.417000       1.00800           0
     25244 TIP3     978      TIP3     H2       HT       0.417000       1.00800           0
     25245 TIP3     979      TIP3     OH2      OT      -0.834000       15.9994           0
     25246 TIP3     979      TIP3     H1       HT       0.417000       1.00800           0
     25247 TIP3     979      TIP3     H2       HT       0.417000       1.00800           0
     25248 TIP3     980      TIP3     OH2      OT      -0.834000       15.9994           0
     25249 TIP3     980      TIP3     H1       HT       0.417000       1.00800           0
     25250 TIP3     980      TIP3     H2       HT       0.417000       1.00800           0
     25251 TIP3     981      TIP3     OH2      OT      -0.834000       15.9994           0
     25252 TIP3     981      TIP3     H1       HT       0.417000       1.00800           0
     25253 TIP3     981      TIP3     H2       HT       0.417000       1.00800           0
     25254 TIP3     982      TIP3     OH2      OT      -0.834000       15.9994           0
     25255 TIP3     982      TIP3     H1       HT       0.417000       1.00800           0
     25256 TIP3     982      TIP3     H2       HT       0.417000       1.00800           0
     25257 TIP3     983      TIP3     OH2      OT      -0.834000       15.9994           0
     25258 TIP3     983      TIP3     H1       HT       0.417000       1.00800           0
     25259 TIP3     983      TIP3     H2       HT       0.417000       1.00800           0
     25260 TIP3     984      TIP3     OH2      OT      -0.834000       15.9994           0
     25261 TIP3     984      TIP3     H1       HT       0.417000       1.00800           0
     25262 TIP3     984      TIP3     H2       HT       0.417000       1.00800           0
     25263 TIP3     985      TIP3     OH2      OT      -0.834000       15.9994           0
     25264 TIP3     985      TIP3     H1       HT       0.417000       1.00800           0
     25265 TIP3     985      TIP3     H2       HT       0.417000       1.00800           0
     25266 TIP3     986      TIP3     OH2      OT      -0.834000       15.9994           0
     25267 TIP3     986      TIP3     H1       HT       0.417000       1.00800           0
     25268 TIP3     986      TIP3     H2       HT       0.417000       1.00800           0
     25269 TIP3     987      TIP3     OH2      OT      -0.834000       15.9994           0
     25270 TIP3     987      TIP3     H1       HT       0.417000       1.00800           0
     25271 TIP3     987      TIP3     H2       HT       0.417000       1.00800           0
     25272 TIP3     988      TIP3     OH2      OT      -0.834000       15.9994           0
     25273 TIP3     988      TIP3     H1       HT       0.417000       1.00800           0
     25274 TIP3     988      TIP3     H2       HT       0.417000       1.00800           0
     25275 TIP3     989      TIP3     OH2      OT      -0.834000       15.9994           0
     25276 TIP3     989      TIP3     H1       HT       0.417000       1.00800           0
     25277 TIP3     989      TIP3     H2       HT       0.417000       1.00800           0
     25278 TIP3     990      TIP3     OH2      OT      -0.834000       15.9994           0
     25279 TIP3     990      TIP3     H1       HT       0.417000       1.00800           0
     25280 TIP3     990      TIP3     H2       HT       0.417000       1.00800           0
     25281 TIP3     991      TIP3     OH2      OT      -0.834000       15.9994           0
     25282 TIP3     991      TIP3     H1       HT       0.417000       1.00800           0
     25283 TIP3     991      TIP3     H2       HT       0.417000       1.00800           0
     25284 TIP3     992      TIP3     OH2      OT      -0.834000       15.9994           0
     25285 TIP3     992      TIP3     H1       HT       0.417000       1.00800           0
     25286 TIP3     992      TIP3     H2       HT       0.417000       1.00800           0
     25287 TIP3     993      TIP3     OH2      OT      -0.834000       15.9994           0
     25288 TIP3     993      TIP3     H1       HT       0.417000       1.00800           0
     25289 TIP3     993      TIP3     H2       HT       0.417000       1.00800           0
     25290 TIP3     994      TIP3     OH2      OT      -0.834000       15.9994           0
     25291 TIP3     994      TIP3     H1       HT       0.417000       1.00800           0
     25292 TIP3     994      TIP3     H2       HT       0.417000       1.00800           0
     25293 TIP3     995      TIP3     OH2      OT      -0.834000       15.9994           0
     25294 TIP3     995      TIP3     H1       HT       0.417000       1.00800           0
     25295 TIP3     995      TIP3     H2       HT       0.417000       1.00800           0
     25296 TIP3     996      TIP3     OH2      OT      -0.834000       15.9994           0
     25297 TIP3     996      TIP3     H1       HT       0.417000       1.00800           0
     25298 TIP3     996      TIP3     H2       HT       0.417000       1.00800           0
     25299 TIP3     997      TIP3     OH2      OT      -0.834000       15.9994           0
     25300 TIP3     997      TIP3     H1       HT       0.417000       1.00800           0
     25301 TIP3     997      TIP3     H2       HT       0.417000       1.00800           0
     25302 TIP3     998      TIP3     OH2      OT      -0.834000       15.9994           0
     25303 TIP3     998      TIP3     H1       HT       0.417000       1.00800           0
     25304 TIP3     998      TIP3     H2       HT       0.417000       1.00800           0
     25305 TIP3     999      TIP3     OH2      OT      -0.834000       15.9994           0
     25306 TIP3     999      TIP3     H1       HT       0.417000       1.00800           0
     25307 TIP3     999      TIP3     H2       HT       0.417000       1.00800           0
     25308 TIP3     1000     TIP3     OH2      OT      -0.834000       15.9994           0
     25309 TIP3     1000     TIP3     H1       HT       0.417000       1.00800           0
     25310 TIP3     1000     TIP3     H2       HT       0.417000       1.00800           0
     25311 TIP3     1001     TIP3     OH2      OT      -0.834000       15.9994           0
     25312 TIP3     1001     TIP3     H1       HT       0.417000       1.00800           0
     25313 TIP3     1001     TIP3     H2       HT       0.417000       1.00800           0
     25314 TIP3     1002     TIP3     OH2      OT      -0.834000       15.9994           0
     25315 TIP3     1002     TIP3     H1       HT       0.417000       1.00800           0
     25316 TIP3     1002     TIP3     H2       HT       0.417000       1.00800           0
     25317 TIP3     1003     TIP3     OH2      OT      -0.834000       15.9994           0
     25318 TIP3     1003     TIP3     H1       HT       0.417000       1.00800           0
     25319 TIP3     1003     TIP3     H2       HT       0.417000       1.00800           0
     25320 TIP3     1004     TIP3     OH2      OT      -0.834000       15.9994           0
     25321 TIP3     1004     TIP3     H1       HT       0.417000       1.00800           0
     25322 TIP3     1004     TIP3     H2       HT       0.417000       1.00800           0
     25323 TIP3     1005     TIP3     OH2      OT      -0.834000       15.9994           0
     25324 TIP3     1005     TIP3     H1       HT       0.417000       1.00800           0
     25325 TIP3     1005     TIP3     H2       HT       0.417000       1.00800           0
     25326 TIP3     1006     TIP3     OH2      OT      -0.834000       15.9994           0
     25327 TIP3     1006     TIP3     H1       HT       0.417000       1.00800           0
     25328 TIP3     1006     TIP3     H2       HT       0.417000       1.00800           0
     25329 TIP3     1007     TIP3     OH2      OT      -0.834000       15.9994           0
     25330 TIP3     1007     TIP3     H1       HT       0.417000       1.00800           0
     25331 TIP3     1007     TIP3     H2       HT       0.417000       1.00800           0
     25332 TIP3     1008     TIP3     OH2      OT      -0.834000       15.9994           0
     25333 TIP3     1008     TIP3     H1       HT       0.417000       1.00800           0
     25334 TIP3     1008     TIP3     H2       HT       0.417000       1.00800           0
     25335 TIP3     1009     TIP3     OH2      OT      -0.834000       15.9994           0
     25336 TIP3     1009     TIP3     H1       HT       0.417000       1.00800           0
     25337 TIP3     1009     TIP3     H2       HT       0.417000       1.00800           0
     25338 TIP3     1010     TIP3     OH2      OT      -0.834000       15.9994           0
     25339 TIP3     1010     TIP3     H1       HT       0.417000       1.00800           0
     25340 TIP3     1010     TIP3     H2       HT       0.417000       1.00800           0
     25341 TIP3     1011     TIP3     OH2      OT      -0.834000       15.9994           0
     25342 TIP3     1011     TIP3     H1       HT       0.417000       1.00800           0
     25343 TIP3     1011     TIP3     H2       HT       0.417000       1.00800           0
     25344 TIP3     1012     TIP3     OH2      OT      -0.834000       15.9994           0
     25345 TIP3     1012     TIP3     H1       HT       0.417000       1.00800           0
     25346 TIP3     1012     TIP3     H2       HT       0.417000       1.00800           0
     25347 TIP3     1013     TIP3     OH2      OT      -0.834000       15.9994           0
     25348 TIP3     1013     TIP3     H1       HT       0.417000       1.00800           0
     25349 TIP3     1013     TIP3     H2       HT       0.417000       1.00800           0
     25350 TIP3     1014     TIP3     OH2      OT      -0.834000       15.9994           0
     25351 TIP3     1014     TIP3     H1       HT       0.417000       1.00800           0
     25352 TIP3     1014     TIP3     H2       HT       0.417000       1.00800           0
     25353 TIP3     1015     TIP3     OH2      OT      -0.834000       15.9994           0
     25354 TIP3     1015     TIP3     H1       HT       0.417000       1.00800           0
     25355 TIP3     1015     TIP3     H2       HT       0.417000       1.00800           0
     25356 TIP3     1016     TIP3     OH2      OT      -0.834000       15.9994           0
     25357 TIP3     1016     TIP3     H1       HT       0.417000       1.00800           0
     25358 TIP3     1016     TIP3     H2       HT       0.417000       1.00800           0
     25359 TIP3     1017     TIP3     OH2      OT      -0.834000       15.9994           0
     25360 TIP3     1017     TIP3     H1       HT       0.417000       1.00800           0
     25361 TIP3     1017     TIP3     H2       HT       0.417000       1.00800           0
     25362 TIP3     1018     TIP3     OH2      OT      -0.834000       15.9994           0
     25363 TIP3     1018     TIP3     H1       HT       0.417000       1.00800           0
     25364 TIP3     1018     TIP3     H2       HT       0.417000       1.00800           0
     25365 TIP3     1019     TIP3     OH2      OT      -0.834000       15.9994           0
     25366 TIP3     1019     TIP3     H1       HT       0.417000       1.00800           0
     25367 TIP3     1019     TIP3     H2       HT       0.417000       1.00800           0
     25368 TIP3     1020     TIP3     OH2      OT      -0.834000       15.9994           0
     25369 TIP3     1020     TIP3     H1       HT       0.417000       1.00800           0
     25370 TIP3     1020     TIP3     H2       HT       0.417000       1.00800           0
     25371 TIP3     1021     TIP3     OH2      OT      -0.834000       15.9994           0
     25372 TIP3     1021     TIP3     H1       HT       0.417000       1.00800           0
     25373 TIP3     1021     TIP3     H2       HT       0.417000       1.00800           0
     25374 TIP3     1022     TIP3     OH2      OT      -0.834000       15.9994           0
     25375 TIP3     1022     TIP3     H1       HT       0.417000       1.00800           0
     25376 TIP3     1022     TIP3     H2       HT       0.417000       1.00800           0
     25377 TIP3     1023     TIP3     OH2      OT      -0.834000       15.9994           0
     25378 TIP3     1023     TIP3     H1       HT       0.417000       1.00800           0
     25379 TIP3     1023     TIP3     H2       HT       0.417000       1.00800           0
     25380 TIP3     1024     TIP3     OH2      OT      -0.834000       15.9994           0
     25381 TIP3     1024     TIP3     H1       HT       0.417000       1.00800           0
     25382 TIP3     1024     TIP3     H2       HT       0.417000       1.00800           0
     25383 TIP3     1025     TIP3     OH2      OT      -0.834000       15.9994           0
     25384 TIP3     1025     TIP3     H1       HT       0.417000       1.00800           0
     25385 TIP3     1025     TIP3     H2       HT       0.417000       1.00800           0
     25386 TIP3     1026     TIP3     OH2      OT      -0.834000       15.9994           0
     25387 TIP3     1026     TIP3     H1       HT       0.417000       1.00800           0
     25388 TIP3     1026     TIP3     H2       HT       0.417000       1.00800           0
     25389 TIP3     1027     TIP3     OH2      OT      -0.834000       15.9994           0
     25390 TIP3     1027     TIP3     H1       HT       0.417000       1.00800           0
     25391 TIP3     1027     TIP3     H2       HT       0.417000       1.00800           0
     25392 TIP3     1028     TIP3     OH2      OT      -0.834000       15.9994           0
     25393 TIP3     1028     TIP3     H1       HT       0.417000       1.00800           0
     25394 TIP3     1028     TIP3     H2       HT       0.417000       1.00800           0
     25395 TIP3     1029     TIP3     OH2      OT      -0.834000       15.9994           0
     25396 TIP3     1029     TIP3     H1       HT       0.417000       1.00800           0
     25397 TIP3     1029     TIP3     H2       HT       0.417000       1.00800           0
     25398 TIP3     1030     TIP3     OH2      OT      -0.834000       15.9994           0
     25399 TIP3     1030     TIP3     H1       HT       0.417000       1.00800           0
     25400 TIP3     1030     TIP3     H2       HT       0.417000       1.00800           0
     25401 TIP3     1031     TIP3     OH2      OT      -0.834000       15.9994           0
     25402 TIP3     1031     TIP3     H1       HT       0.417000       1.00800           0
     25403 TIP3     1031     TIP3     H2       HT       0.417000       1.00800           0
     25404 TIP3     1032     TIP3     OH2      OT      -0.834000       15.9994           0
     25405 TIP3     1032     TIP3     H1       HT       0.417000       1.00800           0
     25406 TIP3     1032     TIP3     H2       HT       0.417000       1.00800           0
     25407 TIP3     1033     TIP3     OH2      OT      -0.834000       15.9994           0
     25408 TIP3     1033     TIP3     H1       HT       0.417000       1.00800           0
     25409 TIP3     1033     TIP3     H2       HT       0.417000       1.00800           0
     25410 TIP3     1034     TIP3     OH2      OT      -0.834000       15.9994           0
     25411 TIP3     1034     TIP3     H1       HT       0.417000       1.00800           0
     25412 TIP3     1034     TIP3     H2       HT       0.417000       1.00800           0
     25413 TIP3     1035     TIP3     OH2      OT      -0.834000       15.9994           0
     25414 TIP3     1035     TIP3     H1       HT       0.417000       1.00800           0
     25415 TIP3     1035     TIP3     H2       HT       0.417000       1.00800           0
     25416 TIP3     1036     TIP3     OH2      OT      -0.834000       15.9994           0
     25417 TIP3     1036     TIP3     H1       HT       0.417000       1.00800           0
     25418 TIP3     1036     TIP3     H2       HT       0.417000       1.00800           0
     25419 TIP3     1037     TIP3     OH2      OT      -0.834000       15.9994           0
     25420 TIP3     1037     TIP3     H1       HT       0.417000       1.00800           0
     25421 TIP3     1037     TIP3     H2       HT       0.417000       1.00800           0
     25422 TIP3     1038     TIP3     OH2      OT      -0.834000       15.9994           0
     25423 TIP3     1038     TIP3     H1       HT       0.417000       1.00800           0
     25424 TIP3     1038     TIP3     H2       HT       0.417000       1.00800           0
     25425 TIP3     1039     TIP3     OH2      OT      -0.834000       15.9994           0
     25426 TIP3     1039     TIP3     H1       HT       0.417000       1.00800           0
     25427 TIP3     1039     TIP3     H2       HT       0.417000       1.00800           0
     25428 TIP3     1040     TIP3     OH2      OT      -0.834000       15.9994           0
     25429 TIP3     1040     TIP3     H1       HT       0.417000       1.00800           0
     25430 TIP3     1040     TIP3     H2       HT       0.417000       1.00800           0
     25431 TIP3     1041     TIP3     OH2      OT      -0.834000       15.9994           0
     25432 TIP3     1041     TIP3     H1       HT       0.417000       1.00800           0
     25433 TIP3     1041     TIP3     H2       HT       0.417000       1.00800           0
     25434 TIP3     1042     TIP3     OH2      OT      -0.834000       15.9994           0
     25435 TIP3     1042     TIP3     H1       HT       0.417000       1.00800           0
     25436 TIP3     1042     TIP3     H2       HT       0.417000       1.00800           0
     25437 TIP3     1043     TIP3     OH2      OT      -0.834000       15.9994           0
     25438 TIP3     1043     TIP3     H1       HT       0.417000       1.00800           0
     25439 TIP3     1043     TIP3     H2       HT       0.417000       1.00800           0
     25440 TIP3     1044     TIP3     OH2      OT      -0.834000       15.9994           0
     25441 TIP3     1044     TIP3     H1       HT       0.417000       1.00800           0
     25442 TIP3     1044     TIP3     H2       HT       0.417000       1.00800           0
     25443 TIP3     1045     TIP3     OH2      OT      -0.834000       15.9994           0
     25444 TIP3     1045     TIP3     H1       HT       0.417000       1.00800           0
     25445 TIP3     1045     TIP3     H2       HT       0.417000       1.00800           0
     25446 TIP3     1046     TIP3     OH2      OT      -0.834000       15.9994           0
     25447 TIP3     1046     TIP3     H1       HT       0.417000       1.00800           0
     25448 TIP3     1046     TIP3     H2       HT       0.417000       1.00800           0
     25449 TIP3     1047     TIP3     OH2      OT      -0.834000       15.9994           0
     25450 TIP3     1047     TIP3     H1       HT       0.417000       1.00800           0
     25451 TIP3     1047     TIP3     H2       HT       0.417000       1.00800           0
     25452 TIP3     1048     TIP3     OH2      OT      -0.834000       15.9994           0
     25453 TIP3     1048     TIP3     H1       HT       0.417000       1.00800           0
     25454 TIP3     1048     TIP3     H2       HT       0.417000       1.00800           0
     25455 TIP3     1049     TIP3     OH2      OT      -0.834000       15.9994           0
     25456 TIP3     1049     TIP3     H1       HT       0.417000       1.00800           0
     25457 TIP3     1049     TIP3     H2       HT       0.417000       1.00800           0
     25458 TIP3     1050     TIP3     OH2      OT      -0.834000       15.9994           0
     25459 TIP3     1050     TIP3     H1       HT       0.417000       1.00800           0
     25460 TIP3     1050     TIP3     H2       HT       0.417000       1.00800           0
     25461 TIP3     1051     TIP3     OH2      OT      -0.834000       15.9994           0
     25462 TIP3     1051     TIP3     H1       HT       0.417000       1.00800           0
     25463 TIP3     1051     TIP3     H2       HT       0.417000       1.00800           0
     25464 TIP3     1052     TIP3     OH2      OT      -0.834000       15.9994           0
     25465 TIP3     1052     TIP3     H1       HT       0.417000       1.00800           0
     25466 TIP3     1052     TIP3     H2       HT       0.417000       1.00800           0
     25467 TIP3     1053     TIP3     OH2      OT      -0.834000       15.9994           0
     25468 TIP3     1053     TIP3     H1       HT       0.417000       1.00800           0
     25469 TIP3     1053     TIP3     H2       HT       0.417000       1.00800           0
     25470 TIP3     1054     TIP3     OH2      OT      -0.834000       15.9994           0
     25471 TIP3     1054     TIP3     H1       HT       0.417000       1.00800           0
     25472 TIP3     1054     TIP3     H2       HT       0.417000       1.00800           0
     25473 TIP3     1055     TIP3     OH2      OT      -0.834000       15.9994           0
     25474 TIP3     1055     TIP3     H1       HT       0.417000       1.00800           0
     25475 TIP3     1055     TIP3     H2       HT       0.417000       1.00800           0
     25476 TIP3     1056     TIP3     OH2      OT      -0.834000       15.9994           0
     25477 TIP3     1056     TIP3     H1       HT       0.417000       1.00800           0
     25478 TIP3     1056     TIP3     H2       HT       0.417000       1.00800           0
     25479 TIP3     1057     TIP3     OH2      OT      -0.834000       15.9994           0
     25480 TIP3     1057     TIP3     H1       HT       0.417000       1.00800           0
     25481 TIP3     1057     TIP3     H2       HT       0.417000       1.00800           0
     25482 TIP3     1058     TIP3     OH2      OT      -0.834000       15.9994           0
     25483 TIP3     1058     TIP3     H1       HT       0.417000       1.00800           0
     25484 TIP3     1058     TIP3     H2       HT       0.417000       1.00800           0
     25485 TIP3     1059     TIP3     OH2      OT      -0.834000       15.9994           0
     25486 TIP3     1059     TIP3     H1       HT       0.417000       1.00800           0
     25487 TIP3     1059     TIP3     H2       HT       0.417000       1.00800           0
     25488 TIP3     1060     TIP3     OH2      OT      -0.834000       15.9994           0
     25489 TIP3     1060     TIP3     H1       HT       0.417000       1.00800           0
     25490 TIP3     1060     TIP3     H2       HT       0.417000       1.00800           0
     25491 TIP3     1061     TIP3     OH2      OT      -0.834000       15.9994           0
     25492 TIP3     1061     TIP3     H1       HT       0.417000       1.00800           0
     25493 TIP3     1061     TIP3     H2       HT       0.417000       1.00800           0
     25494 TIP3     1062     TIP3     OH2      OT      -0.834000       15.9994           0
     25495 TIP3     1062     TIP3     H1       HT       0.417000       1.00800           0
     25496 TIP3     1062     TIP3     H2       HT       0.417000       1.00800           0
     25497 TIP3     1063     TIP3     OH2      OT      -0.834000       15.9994           0
     25498 TIP3     1063     TIP3     H1       HT       0.417000       1.00800           0
     25499 TIP3     1063     TIP3     H2       HT       0.417000       1.00800           0
     25500 TIP3     1064     TIP3     OH2      OT      -0.834000       15.9994           0
     25501 TIP3     1064     TIP3     H1       HT       0.417000       1.00800           0
     25502 TIP3     1064     TIP3     H2       HT       0.417000       1.00800           0
     25503 TIP3     1065     TIP3     OH2      OT      -0.834000       15.9994           0
     25504 TIP3     1065     TIP3     H1       HT       0.417000       1.00800           0
     25505 TIP3     1065     TIP3     H2       HT       0.417000       1.00800           0
     25506 TIP3     1066     TIP3     OH2      OT      -0.834000       15.9994           0
     25507 TIP3     1066     TIP3     H1       HT       0.417000       1.00800           0
     25508 TIP3     1066     TIP3     H2       HT       0.417000       1.00800           0
     25509 TIP3     1067     TIP3     OH2      OT      -0.834000       15.9994           0
     25510 TIP3     1067     TIP3     H1       HT       0.417000       1.00800           0
     25511 TIP3     1067     TIP3     H2       HT       0.417000       1.00800           0
     25512 TIP3     1068     TIP3     OH2      OT      -0.834000       15.9994           0
     25513 TIP3     1068     TIP3     H1       HT       0.417000       1.00800           0
     25514 TIP3     1068     TIP3     H2       HT       0.417000       1.00800           0
     25515 TIP3     1069     TIP3     OH2      OT      -0.834000       15.9994           0
     25516 TIP3     1069     TIP3     H1       HT       0.417000       1.00800           0
     25517 TIP3     1069     TIP3     H2       HT       0.417000       1.00800           0
     25518 TIP3     1070     TIP3     OH2      OT      -0.834000       15.9994           0
     25519 TIP3     1070     TIP3     H1       HT       0.417000       1.00800           0
     25520 TIP3     1070     TIP3     H2       HT       0.417000       1.00800           0
     25521 TIP3     1071     TIP3     OH2      OT      -0.834000       15.9994           0
     25522 TIP3     1071     TIP3     H1       HT       0.417000       1.00800           0
     25523 TIP3     1071     TIP3     H2       HT       0.417000       1.00800           0
     25524 TIP3     1072     TIP3     OH2      OT      -0.834000       15.9994           0
     25525 TIP3     1072     TIP3     H1       HT       0.417000       1.00800           0
     25526 TIP3     1072     TIP3     H2       HT       0.417000       1.00800           0
     25527 TIP3     1073     TIP3     OH2      OT      -0.834000       15.9994           0
     25528 TIP3     1073     TIP3     H1       HT       0.417000       1.00800           0
     25529 TIP3     1073     TIP3     H2       HT       0.417000       1.00800           0
     25530 TIP3     1074     TIP3     OH2      OT      -0.834000       15.9994           0
     25531 TIP3     1074     TIP3     H1       HT       0.417000       1.00800           0
     25532 TIP3     1074     TIP3     H2       HT       0.417000       1.00800           0
     25533 TIP3     1075     TIP3     OH2      OT      -0.834000       15.9994           0
     25534 TIP3     1075     TIP3     H1       HT       0.417000       1.00800           0
     25535 TIP3     1075     TIP3     H2       HT       0.417000       1.00800           0
     25536 TIP3     1076     TIP3     OH2      OT      -0.834000       15.9994           0
     25537 TIP3     1076     TIP3     H1       HT       0.417000       1.00800           0
     25538 TIP3     1076     TIP3     H2       HT       0.417000       1.00800           0
     25539 TIP3     1077     TIP3     OH2      OT      -0.834000       15.9994           0
     25540 TIP3     1077     TIP3     H1       HT       0.417000       1.00800           0
     25541 TIP3     1077     TIP3     H2       HT       0.417000       1.00800           0
     25542 TIP3     1078     TIP3     OH2      OT      -0.834000       15.9994           0
     25543 TIP3     1078     TIP3     H1       HT       0.417000       1.00800           0
     25544 TIP3     1078     TIP3     H2       HT       0.417000       1.00800           0
     25545 TIP3     1079     TIP3     OH2      OT      -0.834000       15.9994           0
     25546 TIP3     1079     TIP3     H1       HT       0.417000       1.00800           0
     25547 TIP3     1079     TIP3     H2       HT       0.417000       1.00800           0
     25548 TIP3     1080     TIP3     OH2      OT      -0.834000       15.9994           0
     25549 TIP3     1080     TIP3     H1       HT       0.417000       1.00800           0
     25550 TIP3     1080     TIP3     H2       HT       0.417000       1.00800           0
     25551 TIP3     1081     TIP3     OH2      OT      -0.834000       15.9994           0
     25552 TIP3     1081     TIP3     H1       HT       0.417000       1.00800           0
     25553 TIP3     1081     TIP3     H2       HT       0.417000       1.00800           0
     25554 TIP3     1082     TIP3     OH2      OT      -0.834000       15.9994           0
     25555 TIP3     1082     TIP3     H1       HT       0.417000       1.00800           0
     25556 TIP3     1082     TIP3     H2       HT       0.417000       1.00800           0
     25557 TIP3     1083     TIP3     OH2      OT      -0.834000       15.9994           0
     25558 TIP3     1083     TIP3     H1       HT       0.417000       1.00800           0
     25559 TIP3     1083     TIP3     H2       HT       0.417000       1.00800           0
     25560 TIP3     1084     TIP3     OH2      OT      -0.834000       15.9994           0
     25561 TIP3     1084     TIP3     H1       HT       0.417000       1.00800           0
     25562 TIP3     1084     TIP3     H2       HT       0.417000       1.00800           0
     25563 TIP3     1085     TIP3     OH2      OT      -0.834000       15.9994           0
     25564 TIP3     1085     TIP3     H1       HT       0.417000       1.00800           0
     25565 TIP3     1085     TIP3     H2       HT       0.417000       1.00800           0
     25566 TIP3     1086     TIP3     OH2      OT      -0.834000       15.9994           0
     25567 TIP3     1086     TIP3     H1       HT       0.417000       1.00800           0
     25568 TIP3     1086     TIP3     H2       HT       0.417000       1.00800           0
     25569 TIP3     1087     TIP3     OH2      OT      -0.834000       15.9994           0
     25570 TIP3     1087     TIP3     H1       HT       0.417000       1.00800           0
     25571 TIP3     1087     TIP3     H2       HT       0.417000       1.00800           0
     25572 TIP3     1088     TIP3     OH2      OT      -0.834000       15.9994           0
     25573 TIP3     1088     TIP3     H1       HT       0.417000       1.00800           0
     25574 TIP3     1088     TIP3     H2       HT       0.417000       1.00800           0
     25575 TIP3     1089     TIP3     OH2      OT      -0.834000       15.9994           0
     25576 TIP3     1089     TIP3     H1       HT       0.417000       1.00800           0
     25577 TIP3     1089     TIP3     H2       HT       0.417000       1.00800           0
     25578 TIP3     1090     TIP3     OH2      OT      -0.834000       15.9994           0
     25579 TIP3     1090     TIP3     H1       HT       0.417000       1.00800           0
     25580 TIP3     1090     TIP3     H2       HT       0.417000       1.00800           0
     25581 TIP3     1091     TIP3     OH2      OT      -0.834000       15.9994           0
     25582 TIP3     1091     TIP3     H1       HT       0.417000       1.00800           0
     25583 TIP3     1091     TIP3     H2       HT       0.417000       1.00800           0
     25584 TIP3     1092     TIP3     OH2      OT      -0.834000       15.9994           0
     25585 TIP3     1092     TIP3     H1       HT       0.417000       1.00800           0
     25586 TIP3     1092     TIP3     H2       HT       0.417000       1.00800           0
     25587 TIP3     1093     TIP3     OH2      OT      -0.834000       15.9994           0
     25588 TIP3     1093     TIP3     H1       HT       0.417000       1.00800           0
     25589 TIP3     1093     TIP3     H2       HT       0.417000       1.00800           0
     25590 TIP3     1094     TIP3     OH2      OT      -0.834000       15.9994           0
     25591 TIP3     1094     TIP3     H1       HT       0.417000       1.00800           0
     25592 TIP3     1094     TIP3     H2       HT       0.417000       1.00800           0
     25593 TIP3     1095     TIP3     OH2      OT      -0.834000       15.9994           0
     25594 TIP3     1095     TIP3     H1       HT       0.417000       1.00800           0
     25595 TIP3     1095     TIP3     H2       HT       0.417000       1.00800           0
     25596 TIP3     1096     TIP3     OH2      OT      -0.834000       15.9994           0
     25597 TIP3     1096     TIP3     H1       HT       0.417000       1.00800           0
     25598 TIP3     1096     TIP3     H2       HT       0.417000       1.00800           0
     25599 TIP3     1097     TIP3     OH2      OT      -0.834000       15.9994           0
     25600 TIP3     1097     TIP3     H1       HT       0.417000       1.00800           0
     25601 TIP3     1097     TIP3     H2       HT       0.417000       1.00800           0
     25602 TIP3     1098     TIP3     OH2      OT      -0.834000       15.9994           0
     25603 TIP3     1098     TIP3     H1       HT       0.417000       1.00800           0
     25604 TIP3     1098     TIP3     H2       HT       0.417000       1.00800           0
     25605 TIP3     1099     TIP3     OH2      OT      -0.834000       15.9994           0
     25606 TIP3     1099     TIP3     H1       HT       0.417000       1.00800           0
     25607 TIP3     1099     TIP3     H2       HT       0.417000       1.00800           0
     25608 TIP3     1100     TIP3     OH2      OT      -0.834000       15.9994           0
     25609 TIP3     1100     TIP3     H1       HT       0.417000       1.00800           0
     25610 TIP3     1100     TIP3     H2       HT       0.417000       1.00800           0
     25611 TIP3     1101     TIP3     OH2      OT      -0.834000       15.9994           0
     25612 TIP3     1101     TIP3     H1       HT       0.417000       1.00800           0
     25613 TIP3     1101     TIP3     H2       HT       0.417000       1.00800           0
     25614 TIP3     1102     TIP3     OH2      OT      -0.834000       15.9994           0
     25615 TIP3     1102     TIP3     H1       HT       0.417000       1.00800           0
     25616 TIP3     1102     TIP3     H2       HT       0.417000       1.00800           0
     25617 TIP3     1103     TIP3     OH2      OT      -0.834000       15.9994           0
     25618 TIP3     1103     TIP3     H1       HT       0.417000       1.00800           0
     25619 TIP3     1103     TIP3     H2       HT       0.417000       1.00800           0
     25620 TIP3     1104     TIP3     OH2      OT      -0.834000       15.9994           0
     25621 TIP3     1104     TIP3     H1       HT       0.417000       1.00800           0
     25622 TIP3     1104     TIP3     H2       HT       0.417000       1.00800           0
     25623 TIP3     1105     TIP3     OH2      OT      -0.834000       15.9994           0
     25624 TIP3     1105     TIP3     H1       HT       0.417000       1.00800           0
     25625 TIP3     1105     TIP3     H2       HT       0.417000       1.00800           0
     25626 TIP3     1106     TIP3     OH2      OT      -0.834000       15.9994           0
     25627 TIP3     1106     TIP3     H1       HT       0.417000       1.00800           0
     25628 TIP3     1106     TIP3     H2       HT       0.417000       1.00800           0
     25629 TIP3     1107     TIP3     OH2      OT      -0.834000       15.9994           0
     25630 TIP3     1107     TIP3     H1       HT       0.417000       1.00800           0
     25631 TIP3     1107     TIP3     H2       HT       0.417000       1.00800           0
     25632 TIP3     1108     TIP3     OH2      OT      -0.834000       15.9994           0
     25633 TIP3     1108     TIP3     H1       HT       0.417000       1.00800           0
     25634 TIP3     1108     TIP3     H2       HT       0.417000       1.00800           0
     25635 TIP3     1109     TIP3     OH2      OT      -0.834000       15.9994           0
     25636 TIP3     1109     TIP3     H1       HT       0.417000       1.00800           0
     25637 TIP3     1109     TIP3     H2       HT       0.417000       1.00800           0
     25638 TIP3     1110     TIP3     OH2      OT      -0.834000       15.9994           0
     25639 TIP3     1110     TIP3     H1       HT       0.417000       1.00800           0
     25640 TIP3     1110     TIP3     H2       HT       0.417000       1.00800           0
     25641 TIP3     1111     TIP3     OH2      OT      -0.834000       15.9994           0
     25642 TIP3     1111     TIP3     H1       HT       0.417000       1.00800           0
     25643 TIP3     1111     TIP3     H2       HT       0.417000       1.00800           0
     25644 TIP3     1112     TIP3     OH2      OT      -0.834000       15.9994           0
     25645 TIP3     1112     TIP3     H1       HT       0.417000       1.00800           0
     25646 TIP3     1112     TIP3     H2       HT       0.417000       1.00800           0
     25647 TIP3     1113     TIP3     OH2      OT      -0.834000       15.9994           0
     25648 TIP3     1113     TIP3     H1       HT       0.417000       1.00800           0
     25649 TIP3     1113     TIP3     H2       HT       0.417000       1.00800           0
     25650 TIP3     1114     TIP3     OH2      OT      -0.834000       15.9994           0
     25651 TIP3     1114     TIP3     H1       HT       0.417000       1.00800           0
     25652 TIP3     1114     TIP3     H2       HT       0.417000       1.00800           0
     25653 TIP3     1115     TIP3     OH2      OT      -0.834000       15.9994           0
     25654 TIP3     1115     TIP3     H1       HT       0.417000       1.00800           0
     25655 TIP3     1115     TIP3     H2       HT       0.417000       1.00800           0
     25656 TIP3     1116     TIP3     OH2      OT      -0.834000       15.9994           0
     25657 TIP3     1116     TIP3     H1       HT       0.417000       1.00800           0
     25658 TIP3     1116     TIP3     H2       HT       0.417000       1.00800           0
     25659 TIP3     1117     TIP3     OH2      OT      -0.834000       15.9994           0
     25660 TIP3     1117     TIP3     H1       HT       0.417000       1.00800           0
     25661 TIP3     1117     TIP3     H2       HT       0.417000       1.00800           0
     25662 TIP3     1118     TIP3     OH2      OT      -0.834000       15.9994           0
     25663 TIP3     1118     TIP3     H1       HT       0.417000       1.00800           0
     25664 TIP3     1118     TIP3     H2       HT       0.417000       1.00800           0
     25665 TIP3     1119     TIP3     OH2      OT      -0.834000       15.9994           0
     25666 TIP3     1119     TIP3     H1       HT       0.417000       1.00800           0
     25667 TIP3     1119     TIP3     H2       HT       0.417000       1.00800           0
     25668 TIP3     1120     TIP3     OH2      OT      -0.834000       15.9994           0
     25669 TIP3     1120     TIP3     H1       HT       0.417000       1.00800           0
     25670 TIP3     1120     TIP3     H2       HT       0.417000       1.00800           0
     25671 TIP3     1121     TIP3     OH2      OT      -0.834000       15.9994           0
     25672 TIP3     1121     TIP3     H1       HT       0.417000       1.00800           0
     25673 TIP3     1121     TIP3     H2       HT       0.417000       1.00800           0
     25674 TIP3     1122     TIP3     OH2      OT      -0.834000       15.9994           0
     25675 TIP3     1122     TIP3     H1       HT       0.417000       1.00800           0
     25676 TIP3     1122     TIP3     H2       HT       0.417000       1.00800           0
     25677 TIP3     1123     TIP3     OH2      OT      -0.834000       15.9994           0
     25678 TIP3     1123     TIP3     H1       HT       0.417000       1.00800           0
     25679 TIP3     1123     TIP3     H2       HT       0.417000       1.00800           0
     25680 TIP3     1124     TIP3     OH2      OT      -0.834000       15.9994           0
     25681 TIP3     1124     TIP3     H1       HT       0.417000       1.00800           0
     25682 TIP3     1124     TIP3     H2       HT       0.417000       1.00800           0
     25683 TIP3     1125     TIP3     OH2      OT      -0.834000       15.9994           0
     25684 TIP3     1125     TIP3     H1       HT       0.417000       1.00800           0
     25685 TIP3     1125     TIP3     H2       HT       0.417000       1.00800           0
     25686 TIP3     1126     TIP3     OH2      OT      -0.834000       15.9994           0
     25687 TIP3     1126     TIP3     H1       HT       0.417000       1.00800           0
     25688 TIP3     1126     TIP3     H2       HT       0.417000       1.00800           0
     25689 TIP3     1127     TIP3     OH2      OT      -0.834000       15.9994           0
     25690 TIP3     1127     TIP3     H1       HT       0.417000       1.00800           0
     25691 TIP3     1127     TIP3     H2       HT       0.417000       1.00800           0
     25692 TIP3     1128     TIP3     OH2      OT      -0.834000       15.9994           0
     25693 TIP3     1128     TIP3     H1       HT       0.417000       1.00800           0
     25694 TIP3     1128     TIP3     H2       HT       0.417000       1.00800           0
     25695 TIP3     1129     TIP3     OH2      OT      -0.834000       15.9994           0
     25696 TIP3     1129     TIP3     H1       HT       0.417000       1.00800           0
     25697 TIP3     1129     TIP3     H2       HT       0.417000       1.00800           0
     25698 TIP3     1130     TIP3     OH2      OT      -0.834000       15.9994           0
     25699 TIP3     1130     TIP3     H1       HT       0.417000       1.00800           0
     25700 TIP3     1130     TIP3     H2       HT       0.417000       1.00800           0
     25701 TIP3     1131     TIP3     OH2      OT      -0.834000       15.9994           0
     25702 TIP3     1131     TIP3     H1       HT       0.417000       1.00800           0
     25703 TIP3     1131     TIP3     H2       HT       0.417000       1.00800           0
     25704 TIP3     1132     TIP3     OH2      OT      -0.834000       15.9994           0
     25705 TIP3     1132     TIP3     H1       HT       0.417000       1.00800           0
     25706 TIP3     1132     TIP3     H2       HT       0.417000       1.00800           0
     25707 TIP3     1133     TIP3     OH2      OT      -0.834000       15.9994           0
     25708 TIP3     1133     TIP3     H1       HT       0.417000       1.00800           0
     25709 TIP3     1133     TIP3     H2       HT       0.417000       1.00800           0
     25710 TIP3     1134     TIP3     OH2      OT      -0.834000       15.9994           0
     25711 TIP3     1134     TIP3     H1       HT       0.417000       1.00800           0
     25712 TIP3     1134     TIP3     H2       HT       0.417000       1.00800           0
     25713 TIP3     1135     TIP3     OH2      OT      -0.834000       15.9994           0
     25714 TIP3     1135     TIP3     H1       HT       0.417000       1.00800           0
     25715 TIP3     1135     TIP3     H2       HT       0.417000       1.00800           0
     25716 TIP3     1136     TIP3     OH2      OT      -0.834000       15.9994           0
     25717 TIP3     1136     TIP3     H1       HT       0.417000       1.00800           0
     25718 TIP3     1136     TIP3     H2       HT       0.417000       1.00800           0
     25719 TIP3     1137     TIP3     OH2      OT      -0.834000       15.9994           0
     25720 TIP3     1137     TIP3     H1       HT       0.417000       1.00800           0
     25721 TIP3     1137     TIP3     H2       HT       0.417000       1.00800           0
     25722 TIP3     1138     TIP3     OH2      OT      -0.834000       15.9994           0
     25723 TIP3     1138     TIP3     H1       HT       0.417000       1.00800           0
     25724 TIP3     1138     TIP3     H2       HT       0.417000       1.00800           0
     25725 TIP3     1139     TIP3     OH2      OT      -0.834000       15.9994           0
     25726 TIP3     1139     TIP3     H1       HT       0.417000       1.00800           0
     25727 TIP3     1139     TIP3     H2       HT       0.417000       1.00800           0
     25728 TIP3     1140     TIP3     OH2      OT      -0.834000       15.9994           0
     25729 TIP3     1140     TIP3     H1       HT       0.417000       1.00800           0
     25730 TIP3     1140     TIP3     H2       HT       0.417000       1.00800           0
     25731 TIP3     1141     TIP3     OH2      OT      -0.834000       15.9994           0
     25732 TIP3     1141     TIP3     H1       HT       0.417000       1.00800           0
     25733 TIP3     1141     TIP3     H2       HT       0.417000       1.00800           0
     25734 TIP3     1142     TIP3     OH2      OT      -0.834000       15.9994           0
     25735 TIP3     1142     TIP3     H1       HT       0.417000       1.00800           0
     25736 TIP3     1142     TIP3     H2       HT       0.417000       1.00800           0
     25737 TIP3     1143     TIP3     OH2      OT      -0.834000       15.9994           0
     25738 TIP3     1143     TIP3     H1       HT       0.417000       1.00800           0
     25739 TIP3     1143     TIP3     H2       HT       0.417000       1.00800           0
     25740 TIP3     1144     TIP3     OH2      OT      -0.834000       15.9994           0
     25741 TIP3     1144     TIP3     H1       HT       0.417000       1.00800           0
     25742 TIP3     1144     TIP3     H2       HT       0.417000       1.00800           0
     25743 TIP3     1145     TIP3     OH2      OT      -0.834000       15.9994           0
     25744 TIP3     1145     TIP3     H1       HT       0.417000       1.00800           0
     25745 TIP3     1145     TIP3     H2       HT       0.417000       1.00800           0
     25746 TIP3     1146     TIP3     OH2      OT      -0.834000       15.9994           0
     25747 TIP3     1146     TIP3     H1       HT       0.417000       1.00800           0
     25748 TIP3     1146     TIP3     H2       HT       0.417000       1.00800           0
     25749 TIP3     1147     TIP3     OH2      OT      -0.834000       15.9994           0
     25750 TIP3     1147     TIP3     H1       HT       0.417000       1.00800           0
     25751 TIP3     1147     TIP3     H2       HT       0.417000       1.00800           0
     25752 TIP3     1148     TIP3     OH2      OT      -0.834000       15.9994           0
     25753 TIP3     1148     TIP3     H1       HT       0.417000       1.00800           0
     25754 TIP3     1148     TIP3     H2       HT       0.417000       1.00800           0
     25755 TIP3     1149     TIP3     OH2      OT      -0.834000       15.9994           0
     25756 TIP3     1149     TIP3     H1       HT       0.417000       1.00800           0
     25757 TIP3     1149     TIP3     H2       HT       0.417000       1.00800           0
     25758 TIP3     1150     TIP3     OH2      OT      -0.834000       15.9994           0
     25759 TIP3     1150     TIP3     H1       HT       0.417000       1.00800           0
     25760 TIP3     1150     TIP3     H2       HT       0.417000       1.00800           0
     25761 TIP3     1151     TIP3     OH2      OT      -0.834000       15.9994           0
     25762 TIP3     1151     TIP3     H1       HT       0.417000       1.00800           0
     25763 TIP3     1151     TIP3     H2       HT       0.417000       1.00800           0
     25764 TIP3     1152     TIP3     OH2      OT      -0.834000       15.9994           0
     25765 TIP3     1152     TIP3     H1       HT       0.417000       1.00800           0
     25766 TIP3     1152     TIP3     H2       HT       0.417000       1.00800           0
     25767 TIP3     1153     TIP3     OH2      OT      -0.834000       15.9994           0
     25768 TIP3     1153     TIP3     H1       HT       0.417000       1.00800           0
     25769 TIP3     1153     TIP3     H2       HT       0.417000       1.00800           0
     25770 TIP3     1154     TIP3     OH2      OT      -0.834000       15.9994           0
     25771 TIP3     1154     TIP3     H1       HT       0.417000       1.00800           0
     25772 TIP3     1154     TIP3     H2       HT       0.417000       1.00800           0
     25773 TIP3     1155     TIP3     OH2      OT      -0.834000       15.9994           0
     25774 TIP3     1155     TIP3     H1       HT       0.417000       1.00800           0
     25775 TIP3     1155     TIP3     H2       HT       0.417000       1.00800           0
     25776 TIP3     1156     TIP3     OH2      OT      -0.834000       15.9994           0
     25777 TIP3     1156     TIP3     H1       HT       0.417000       1.00800           0
     25778 TIP3     1156     TIP3     H2       HT       0.417000       1.00800           0
     25779 TIP3     1157     TIP3     OH2      OT      -0.834000       15.9994           0
     25780 TIP3     1157     TIP3     H1       HT       0.417000       1.00800           0
     25781 TIP3     1157     TIP3     H2       HT       0.417000       1.00800           0
     25782 TIP3     1158     TIP3     OH2      OT      -0.834000       15.9994           0
     25783 TIP3     1158     TIP3     H1       HT       0.417000       1.00800           0
     25784 TIP3     1158     TIP3     H2       HT       0.417000       1.00800           0
     25785 TIP3     1159     TIP3     OH2      OT      -0.834000       15.9994           0
     25786 TIP3     1159     TIP3     H1       HT       0.417000       1.00800           0
     25787 TIP3     1159     TIP3     H2       HT       0.417000       1.00800           0
     25788 TIP3     1160     TIP3     OH2      OT      -0.834000       15.9994           0
     25789 TIP3     1160     TIP3     H1       HT       0.417000       1.00800           0
     25790 TIP3     1160     TIP3     H2       HT       0.417000       1.00800           0
     25791 TIP3     1161     TIP3     OH2      OT      -0.834000       15.9994           0
     25792 TIP3     1161     TIP3     H1       HT       0.417000       1.00800           0
     25793 TIP3     1161     TIP3     H2       HT       0.417000       1.00800           0
     25794 TIP3     1162     TIP3     OH2      OT      -0.834000       15.9994           0
     25795 TIP3     1162     TIP3     H1       HT       0.417000       1.00800           0
     25796 TIP3     1162     TIP3     H2       HT       0.417000       1.00800           0
     25797 TIP3     1163     TIP3     OH2      OT      -0.834000       15.9994           0
     25798 TIP3     1163     TIP3     H1       HT       0.417000       1.00800           0
     25799 TIP3     1163     TIP3     H2       HT       0.417000       1.00800           0
     25800 TIP3     1164     TIP3     OH2      OT      -0.834000       15.9994           0
     25801 TIP3     1164     TIP3     H1       HT       0.417000       1.00800           0
     25802 TIP3     1164     TIP3     H2       HT       0.417000       1.00800           0
     25803 TIP3     1165     TIP3     OH2      OT      -0.834000       15.9994           0
     25804 TIP3     1165     TIP3     H1       HT       0.417000       1.00800           0
     25805 TIP3     1165     TIP3     H2       HT       0.417000       1.00800           0
     25806 TIP3     1166     TIP3     OH2      OT      -0.834000       15.9994           0
     25807 TIP3     1166     TIP3     H1       HT       0.417000       1.00800           0
     25808 TIP3     1166     TIP3     H2       HT       0.417000       1.00800           0
     25809 TIP3     1167     TIP3     OH2      OT      -0.834000       15.9994           0
     25810 TIP3     1167     TIP3     H1       HT       0.417000       1.00800           0
     25811 TIP3     1167     TIP3     H2       HT       0.417000       1.00800           0
     25812 TIP3     1168     TIP3     OH2      OT      -0.834000       15.9994           0
     25813 TIP3     1168     TIP3     H1       HT       0.417000       1.00800           0
     25814 TIP3     1168     TIP3     H2       HT       0.417000       1.00800           0
     25815 TIP3     1169     TIP3     OH2      OT      -0.834000       15.9994           0
     25816 TIP3     1169     TIP3     H1       HT       0.417000       1.00800           0
     25817 TIP3     1169     TIP3     H2       HT       0.417000       1.00800           0
     25818 TIP3     1170     TIP3     OH2      OT      -0.834000       15.9994           0
     25819 TIP3     1170     TIP3     H1       HT       0.417000       1.00800           0
     25820 TIP3     1170     TIP3     H2       HT       0.417000       1.00800           0
     25821 TIP3     1171     TIP3     OH2      OT      -0.834000       15.9994           0
     25822 TIP3     1171     TIP3     H1       HT       0.417000       1.00800           0
     25823 TIP3     1171     TIP3     H2       HT       0.417000       1.00800           0
     25824 TIP3     1172     TIP3     OH2      OT      -0.834000       15.9994           0
     25825 TIP3     1172     TIP3     H1       HT       0.417000       1.00800           0
     25826 TIP3     1172     TIP3     H2       HT       0.417000       1.00800           0
     25827 TIP3     1173     TIP3     OH2      OT      -0.834000       15.9994           0
     25828 TIP3     1173     TIP3     H1       HT       0.417000       1.00800           0
     25829 TIP3     1173     TIP3     H2       HT       0.417000       1.00800           0
     25830 TIP3     1174     TIP3     OH2      OT      -0.834000       15.9994           0
     25831 TIP3     1174     TIP3     H1       HT       0.417000       1.00800           0
     25832 TIP3     1174     TIP3     H2       HT       0.417000       1.00800           0
     25833 TIP3     1175     TIP3     OH2      OT      -0.834000       15.9994           0
     25834 TIP3     1175     TIP3     H1       HT       0.417000       1.00800           0
     25835 TIP3     1175     TIP3     H2       HT       0.417000       1.00800           0
     25836 TIP3     1176     TIP3     OH2      OT      -0.834000       15.9994           0
     25837 TIP3     1176     TIP3     H1       HT       0.417000       1.00800           0
     25838 TIP3     1176     TIP3     H2       HT       0.417000       1.00800           0
     25839 TIP3     1177     TIP3     OH2      OT      -0.834000       15.9994           0
     25840 TIP3     1177     TIP3     H1       HT       0.417000       1.00800           0
     25841 TIP3     1177     TIP3     H2       HT       0.417000       1.00800           0
     25842 TIP3     1178     TIP3     OH2      OT      -0.834000       15.9994           0
     25843 TIP3     1178     TIP3     H1       HT       0.417000       1.00800           0
     25844 TIP3     1178     TIP3     H2       HT       0.417000       1.00800           0
     25845 TIP3     1179     TIP3     OH2      OT      -0.834000       15.9994           0
     25846 TIP3     1179     TIP3     H1       HT       0.417000       1.00800           0
     25847 TIP3     1179     TIP3     H2       HT       0.417000       1.00800           0
     25848 TIP3     1180     TIP3     OH2      OT      -0.834000       15.9994           0
     25849 TIP3     1180     TIP3     H1       HT       0.417000       1.00800           0
     25850 TIP3     1180     TIP3     H2       HT       0.417000       1.00800           0
     25851 TIP3     1181     TIP3     OH2      OT      -0.834000       15.9994           0
     25852 TIP3     1181     TIP3     H1       HT       0.417000       1.00800           0
     25853 TIP3     1181     TIP3     H2       HT       0.417000       1.00800           0
     25854 TIP3     1182     TIP3     OH2      OT      -0.834000       15.9994           0
     25855 TIP3     1182     TIP3     H1       HT       0.417000       1.00800           0
     25856 TIP3     1182     TIP3     H2       HT       0.417000       1.00800           0
     25857 TIP3     1183     TIP3     OH2      OT      -0.834000       15.9994           0
     25858 TIP3     1183     TIP3     H1       HT       0.417000       1.00800           0
     25859 TIP3     1183     TIP3     H2       HT       0.417000       1.00800           0
     25860 TIP3     1184     TIP3     OH2      OT      -0.834000       15.9994           0
     25861 TIP3     1184     TIP3     H1       HT       0.417000       1.00800           0
     25862 TIP3     1184     TIP3     H2       HT       0.417000       1.00800           0
     25863 TIP3     1185     TIP3     OH2      OT      -0.834000       15.9994           0
     25864 TIP3     1185     TIP3     H1       HT       0.417000       1.00800           0
     25865 TIP3     1185     TIP3     H2       HT       0.417000       1.00800           0
     25866 TIP3     1186     TIP3     OH2      OT      -0.834000       15.9994           0
     25867 TIP3     1186     TIP3     H1       HT       0.417000       1.00800           0
     25868 TIP3     1186     TIP3     H2       HT       0.417000       1.00800           0
     25869 TIP3     1187     TIP3     OH2      OT      -0.834000       15.9994           0
     25870 TIP3     1187     TIP3     H1       HT       0.417000       1.00800           0
     25871 TIP3     1187     TIP3     H2       HT       0.417000       1.00800           0
     25872 TIP3     1188     TIP3     OH2      OT      -0.834000       15.9994           0
     25873 TIP3     1188     TIP3     H1       HT       0.417000       1.00800           0
     25874 TIP3     1188     TIP3     H2       HT       0.417000       1.00800           0
     25875 TIP3     1189     TIP3     OH2      OT      -0.834000       15.9994           0
     25876 TIP3     1189     TIP3     H1       HT       0.417000       1.00800           0
     25877 TIP3     1189     TIP3     H2       HT       0.417000       1.00800           0
     25878 TIP3     1190     TIP3     OH2      OT      -0.834000       15.9994           0
     25879 TIP3     1190     TIP3     H1       HT       0.417000       1.00800           0
     25880 TIP3     1190     TIP3     H2       HT       0.417000       1.00800           0
     25881 TIP3     1191     TIP3     OH2      OT      -0.834000       15.9994           0
     25882 TIP3     1191     TIP3     H1       HT       0.417000       1.00800           0
     25883 TIP3     1191     TIP3     H2       HT       0.417000       1.00800           0
     25884 TIP3     1192     TIP3     OH2      OT      -0.834000       15.9994           0
     25885 TIP3     1192     TIP3     H1       HT       0.417000       1.00800           0
     25886 TIP3     1192     TIP3     H2       HT       0.417000       1.00800           0
     25887 TIP3     1193     TIP3     OH2      OT      -0.834000       15.9994           0
     25888 TIP3     1193     TIP3     H1       HT       0.417000       1.00800           0
     25889 TIP3     1193     TIP3     H2       HT       0.417000       1.00800           0
     25890 TIP3     1194     TIP3     OH2      OT      -0.834000       15.9994           0
     25891 TIP3     1194     TIP3     H1       HT       0.417000       1.00800           0
     25892 TIP3     1194     TIP3     H2       HT       0.417000       1.00800           0
     25893 TIP3     1195     TIP3     OH2      OT      -0.834000       15.9994           0
     25894 TIP3     1195     TIP3     H1       HT       0.417000       1.00800           0
     25895 TIP3     1195     TIP3     H2       HT       0.417000       1.00800           0
     25896 TIP3     1196     TIP3     OH2      OT      -0.834000       15.9994           0
     25897 TIP3     1196     TIP3     H1       HT       0.417000       1.00800           0
     25898 TIP3     1196     TIP3     H2       HT       0.417000       1.00800           0
     25899 TIP3     1197     TIP3     OH2      OT      -0.834000       15.9994           0
     25900 TIP3     1197     TIP3     H1       HT       0.417000       1.00800           0
     25901 TIP3     1197     TIP3     H2       HT       0.417000       1.00800           0
     25902 TIP3     1198     TIP3     OH2      OT      -0.834000       15.9994           0
     25903 TIP3     1198     TIP3     H1       HT       0.417000       1.00800           0
     25904 TIP3     1198     TIP3     H2       HT       0.417000       1.00800           0
     25905 TIP3     1199     TIP3     OH2      OT      -0.834000       15.9994           0
     25906 TIP3     1199     TIP3     H1       HT       0.417000       1.00800           0
     25907 TIP3     1199     TIP3     H2       HT       0.417000       1.00800           0
     25908 TIP3     1200     TIP3     OH2      OT      -0.834000       15.9994           0
     25909 TIP3     1200     TIP3     H1       HT       0.417000       1.00800           0
     25910 TIP3     1200     TIP3     H2       HT       0.417000       1.00800           0
     25911 TIP3     1201     TIP3     OH2      OT      -0.834000       15.9994           0
     25912 TIP3     1201     TIP3     H1       HT       0.417000       1.00800           0
     25913 TIP3     1201     TIP3     H2       HT       0.417000       1.00800           0
     25914 TIP3     1202     TIP3     OH2      OT      -0.834000       15.9994           0
     25915 TIP3     1202     TIP3     H1       HT       0.417000       1.00800           0
     25916 TIP3     1202     TIP3     H2       HT       0.417000       1.00800           0
     25917 TIP3     1203     TIP3     OH2      OT      -0.834000       15.9994           0
     25918 TIP3     1203     TIP3     H1       HT       0.417000       1.00800           0
     25919 TIP3     1203     TIP3     H2       HT       0.417000       1.00800           0
     25920 TIP3     1204     TIP3     OH2      OT      -0.834000       15.9994           0
     25921 TIP3     1204     TIP3     H1       HT       0.417000       1.00800           0
     25922 TIP3     1204     TIP3     H2       HT       0.417000       1.00800           0
     25923 TIP3     1205     TIP3     OH2      OT      -0.834000       15.9994           0
     25924 TIP3     1205     TIP3     H1       HT       0.417000       1.00800           0
     25925 TIP3     1205     TIP3     H2       HT       0.417000       1.00800           0
     25926 TIP3     1206     TIP3     OH2      OT      -0.834000       15.9994           0
     25927 TIP3     1206     TIP3     H1       HT       0.417000       1.00800           0
     25928 TIP3     1206     TIP3     H2       HT       0.417000       1.00800           0
     25929 TIP3     1207     TIP3     OH2      OT      -0.834000       15.9994           0
     25930 TIP3     1207     TIP3     H1       HT       0.417000       1.00800           0
     25931 TIP3     1207     TIP3     H2       HT       0.417000       1.00800           0
     25932 TIP3     1208     TIP3     OH2      OT      -0.834000       15.9994           0
     25933 TIP3     1208     TIP3     H1       HT       0.417000       1.00800           0
     25934 TIP3     1208     TIP3     H2       HT       0.417000       1.00800           0
     25935 TIP3     1209     TIP3     OH2      OT      -0.834000       15.9994           0
     25936 TIP3     1209     TIP3     H1       HT       0.417000       1.00800           0
     25937 TIP3     1209     TIP3     H2       HT       0.417000       1.00800           0
     25938 TIP3     1210     TIP3     OH2      OT      -0.834000       15.9994           0
     25939 TIP3     1210     TIP3     H1       HT       0.417000       1.00800           0
     25940 TIP3     1210     TIP3     H2       HT       0.417000       1.00800           0
     25941 TIP3     1211     TIP3     OH2      OT      -0.834000       15.9994           0
     25942 TIP3     1211     TIP3     H1       HT       0.417000       1.00800           0
     25943 TIP3     1211     TIP3     H2       HT       0.417000       1.00800           0
     25944 TIP3     1212     TIP3     OH2      OT      -0.834000       15.9994           0
     25945 TIP3     1212     TIP3     H1       HT       0.417000       1.00800           0
     25946 TIP3     1212     TIP3     H2       HT       0.417000       1.00800           0
     25947 TIP3     1213     TIP3     OH2      OT      -0.834000       15.9994           0
     25948 TIP3     1213     TIP3     H1       HT       0.417000       1.00800           0
     25949 TIP3     1213     TIP3     H2       HT       0.417000       1.00800           0
     25950 TIP3     1214     TIP3     OH2      OT      -0.834000       15.9994           0
     25951 TIP3     1214     TIP3     H1       HT       0.417000       1.00800           0
     25952 TIP3     1214     TIP3     H2       HT       0.417000       1.00800           0
     25953 TIP3     1215     TIP3     OH2      OT      -0.834000       15.9994           0
     25954 TIP3     1215     TIP3     H1       HT       0.417000       1.00800           0
     25955 TIP3     1215     TIP3     H2       HT       0.417000       1.00800           0
     25956 TIP3     1216     TIP3     OH2      OT      -0.834000       15.9994           0
     25957 TIP3     1216     TIP3     H1       HT       0.417000       1.00800           0
     25958 TIP3     1216     TIP3     H2       HT       0.417000       1.00800           0
     25959 TIP3     1217     TIP3     OH2      OT      -0.834000       15.9994           0
     25960 TIP3     1217     TIP3     H1       HT       0.417000       1.00800           0
     25961 TIP3     1217     TIP3     H2       HT       0.417000       1.00800           0
     25962 TIP3     1218     TIP3     OH2      OT      -0.834000       15.9994           0
     25963 TIP3     1218     TIP3     H1       HT       0.417000       1.00800           0
     25964 TIP3     1218     TIP3     H2       HT       0.417000       1.00800           0
     25965 TIP3     1219     TIP3     OH2      OT      -0.834000       15.9994           0
     25966 TIP3     1219     TIP3     H1       HT       0.417000       1.00800           0
     25967 TIP3     1219     TIP3     H2       HT       0.417000       1.00800           0
     25968 TIP3     1220     TIP3     OH2      OT      -0.834000       15.9994           0
     25969 TIP3     1220     TIP3     H1       HT       0.417000       1.00800           0
     25970 TIP3     1220     TIP3     H2       HT       0.417000       1.00800           0
     25971 TIP3     1221     TIP3     OH2      OT      -0.834000       15.9994           0
     25972 TIP3     1221     TIP3     H1       HT       0.417000       1.00800           0
     25973 TIP3     1221     TIP3     H2       HT       0.417000       1.00800           0
     25974 TIP3     1222     TIP3     OH2      OT      -0.834000       15.9994           0
     25975 TIP3     1222     TIP3     H1       HT       0.417000       1.00800           0
     25976 TIP3     1222     TIP3     H2       HT       0.417000       1.00800           0
     25977 TIP3     1223     TIP3     OH2      OT      -0.834000       15.9994           0
     25978 TIP3     1223     TIP3     H1       HT       0.417000       1.00800           0
     25979 TIP3     1223     TIP3     H2       HT       0.417000       1.00800           0
     25980 TIP3     1224     TIP3     OH2      OT      -0.834000       15.9994           0
     25981 TIP3     1224     TIP3     H1       HT       0.417000       1.00800           0
     25982 TIP3     1224     TIP3     H2       HT       0.417000       1.00800           0
     25983 TIP3     1225     TIP3     OH2      OT      -0.834000       15.9994           0
     25984 TIP3     1225     TIP3     H1       HT       0.417000       1.00800           0
     25985 TIP3     1225     TIP3     H2       HT       0.417000       1.00800           0
     25986 TIP3     1226     TIP3     OH2      OT      -0.834000       15.9994           0
     25987 TIP3     1226     TIP3     H1       HT       0.417000       1.00800           0
     25988 TIP3     1226     TIP3     H2       HT       0.417000       1.00800           0
     25989 TIP3     1227     TIP3     OH2      OT      -0.834000       15.9994           0
     25990 TIP3     1227     TIP3     H1       HT       0.417000       1.00800           0
     25991 TIP3     1227     TIP3     H2       HT       0.417000       1.00800           0
     25992 TIP3     1228     TIP3     OH2      OT      -0.834000       15.9994           0
     25993 TIP3     1228     TIP3     H1       HT       0.417000       1.00800           0
     25994 TIP3     1228     TIP3     H2       HT       0.417000       1.00800           0
     25995 TIP3     1229     TIP3     OH2      OT      -0.834000       15.9994           0
     25996 TIP3     1229     TIP3     H1       HT       0.417000       1.00800           0
     25997 TIP3     1229     TIP3     H2       HT       0.417000       1.00800           0
     25998 TIP3     1230     TIP3     OH2      OT      -0.834000       15.9994           0
     25999 TIP3     1230     TIP3     H1       HT       0.417000       1.00800           0
     26000 TIP3     1230     TIP3     H2       HT       0.417000       1.00800           0
     26001 TIP3     1231     TIP3     OH2      OT      -0.834000       15.9994           0
     26002 TIP3     1231     TIP3     H1       HT       0.417000       1.00800           0
     26003 TIP3     1231     TIP3     H2       HT       0.417000       1.00800           0
     26004 TIP3     1232     TIP3     OH2      OT      -0.834000       15.9994           0
     26005 TIP3     1232     TIP3     H1       HT       0.417000       1.00800           0
     26006 TIP3     1232     TIP3     H2       HT       0.417000       1.00800           0
     26007 TIP3     1233     TIP3     OH2      OT      -0.834000       15.9994           0
     26008 TIP3     1233     TIP3     H1       HT       0.417000       1.00800           0
     26009 TIP3     1233     TIP3     H2       HT       0.417000       1.00800           0
     26010 TIP3     1234     TIP3     OH2      OT      -0.834000       15.9994           0
     26011 TIP3     1234     TIP3     H1       HT       0.417000       1.00800           0
     26012 TIP3     1234     TIP3     H2       HT       0.417000       1.00800           0
     26013 TIP3     1235     TIP3     OH2      OT      -0.834000       15.9994           0
     26014 TIP3     1235     TIP3     H1       HT       0.417000       1.00800           0
     26015 TIP3     1235     TIP3     H2       HT       0.417000       1.00800           0
     26016 TIP3     1236     TIP3     OH2      OT      -0.834000       15.9994           0
     26017 TIP3     1236     TIP3     H1       HT       0.417000       1.00800           0
     26018 TIP3     1236     TIP3     H2       HT       0.417000       1.00800           0
     26019 TIP3     1237     TIP3     OH2      OT      -0.834000       15.9994           0
     26020 TIP3     1237     TIP3     H1       HT       0.417000       1.00800           0
     26021 TIP3     1237     TIP3     H2       HT       0.417000       1.00800           0
     26022 TIP3     1238     TIP3     OH2      OT      -0.834000       15.9994           0
     26023 TIP3     1238     TIP3     H1       HT       0.417000       1.00800           0
     26024 TIP3     1238     TIP3     H2       HT       0.417000       1.00800           0
     26025 TIP3     1239     TIP3     OH2      OT      -0.834000       15.9994           0
     26026 TIP3     1239     TIP3     H1       HT       0.417000       1.00800           0
     26027 TIP3     1239     TIP3     H2       HT       0.417000       1.00800           0
     26028 TIP3     1240     TIP3     OH2      OT      -0.834000       15.9994           0
     26029 TIP3     1240     TIP3     H1       HT       0.417000       1.00800           0
     26030 TIP3     1240     TIP3     H2       HT       0.417000       1.00800           0
     26031 TIP3     1241     TIP3     OH2      OT      -0.834000       15.9994           0
     26032 TIP3     1241     TIP3     H1       HT       0.417000       1.00800           0
     26033 TIP3     1241     TIP3     H2       HT       0.417000       1.00800           0
     26034 TIP3     1242     TIP3     OH2      OT      -0.834000       15.9994           0
     26035 TIP3     1242     TIP3     H1       HT       0.417000       1.00800           0
     26036 TIP3     1242     TIP3     H2       HT       0.417000       1.00800           0
     26037 TIP3     1243     TIP3     OH2      OT      -0.834000       15.9994           0
     26038 TIP3     1243     TIP3     H1       HT       0.417000       1.00800           0
     26039 TIP3     1243     TIP3     H2       HT       0.417000       1.00800           0
     26040 TIP3     1244     TIP3     OH2      OT      -0.834000       15.9994           0
     26041 TIP3     1244     TIP3     H1       HT       0.417000       1.00800           0
     26042 TIP3     1244     TIP3     H2       HT       0.417000       1.00800           0
     26043 TIP3     1245     TIP3     OH2      OT      -0.834000       15.9994           0
     26044 TIP3     1245     TIP3     H1       HT       0.417000       1.00800           0
     26045 TIP3     1245     TIP3     H2       HT       0.417000       1.00800           0
     26046 TIP3     1246     TIP3     OH2      OT      -0.834000       15.9994           0
     26047 TIP3     1246     TIP3     H1       HT       0.417000       1.00800           0
     26048 TIP3     1246     TIP3     H2       HT       0.417000       1.00800           0
     26049 TIP3     1247     TIP3     OH2      OT      -0.834000       15.9994           0
     26050 TIP3     1247     TIP3     H1       HT       0.417000       1.00800           0
     26051 TIP3     1247     TIP3     H2       HT       0.417000       1.00800           0
     26052 TIP3     1248     TIP3     OH2      OT      -0.834000       15.9994           0
     26053 TIP3     1248     TIP3     H1       HT       0.417000       1.00800           0
     26054 TIP3     1248     TIP3     H2       HT       0.417000       1.00800           0
     26055 TIP3     1249     TIP3     OH2      OT      -0.834000       15.9994           0
     26056 TIP3     1249     TIP3     H1       HT       0.417000       1.00800           0
     26057 TIP3     1249     TIP3     H2       HT       0.417000       1.00800           0
     26058 TIP3     1250     TIP3     OH2      OT      -0.834000       15.9994           0
     26059 TIP3     1250     TIP3     H1       HT       0.417000       1.00800           0
     26060 TIP3     1250     TIP3     H2       HT       0.417000       1.00800           0
     26061 TIP3     1251     TIP3     OH2      OT      -0.834000       15.9994           0
     26062 TIP3     1251     TIP3     H1       HT       0.417000       1.00800           0
     26063 TIP3     1251     TIP3     H2       HT       0.417000       1.00800           0
     26064 TIP3     1252     TIP3     OH2      OT      -0.834000       15.9994           0
     26065 TIP3     1252     TIP3     H1       HT       0.417000       1.00800           0
     26066 TIP3     1252     TIP3     H2       HT       0.417000       1.00800           0
     26067 TIP3     1253     TIP3     OH2      OT      -0.834000       15.9994           0
     26068 TIP3     1253     TIP3     H1       HT       0.417000       1.00800           0
     26069 TIP3     1253     TIP3     H2       HT       0.417000       1.00800           0
     26070 TIP3     1254     TIP3     OH2      OT      -0.834000       15.9994           0
     26071 TIP3     1254     TIP3     H1       HT       0.417000       1.00800           0
     26072 TIP3     1254     TIP3     H2       HT       0.417000       1.00800           0
     26073 TIP3     1255     TIP3     OH2      OT      -0.834000       15.9994           0
     26074 TIP3     1255     TIP3     H1       HT       0.417000       1.00800           0
     26075 TIP3     1255     TIP3     H2       HT       0.417000       1.00800           0
     26076 TIP3     1256     TIP3     OH2      OT      -0.834000       15.9994           0
     26077 TIP3     1256     TIP3     H1       HT       0.417000       1.00800           0
     26078 TIP3     1256     TIP3     H2       HT       0.417000       1.00800           0
     26079 TIP3     1257     TIP3     OH2      OT      -0.834000       15.9994           0
     26080 TIP3     1257     TIP3     H1       HT       0.417000       1.00800           0
     26081 TIP3     1257     TIP3     H2       HT       0.417000       1.00800           0
     26082 TIP3     1258     TIP3     OH2      OT      -0.834000       15.9994           0
     26083 TIP3     1258     TIP3     H1       HT       0.417000       1.00800           0
     26084 TIP3     1258     TIP3     H2       HT       0.417000       1.00800           0
     26085 TIP3     1259     TIP3     OH2      OT      -0.834000       15.9994           0
     26086 TIP3     1259     TIP3     H1       HT       0.417000       1.00800           0
     26087 TIP3     1259     TIP3     H2       HT       0.417000       1.00800           0
     26088 TIP3     1260     TIP3     OH2      OT      -0.834000       15.9994           0
     26089 TIP3     1260     TIP3     H1       HT       0.417000       1.00800           0
     26090 TIP3     1260     TIP3     H2       HT       0.417000       1.00800           0
     26091 TIP3     1261     TIP3     OH2      OT      -0.834000       15.9994           0
     26092 TIP3     1261     TIP3     H1       HT       0.417000       1.00800           0
     26093 TIP3     1261     TIP3     H2       HT       0.417000       1.00800           0
     26094 TIP3     1262     TIP3     OH2      OT      -0.834000       15.9994           0
     26095 TIP3     1262     TIP3     H1       HT       0.417000       1.00800           0
     26096 TIP3     1262     TIP3     H2       HT       0.417000       1.00800           0
     26097 TIP3     1263     TIP3     OH2      OT      -0.834000       15.9994           0
     26098 TIP3     1263     TIP3     H1       HT       0.417000       1.00800           0
     26099 TIP3     1263     TIP3     H2       HT       0.417000       1.00800           0
     26100 TIP3     1264     TIP3     OH2      OT      -0.834000       15.9994           0
     26101 TIP3     1264     TIP3     H1       HT       0.417000       1.00800           0
     26102 TIP3     1264     TIP3     H2       HT       0.417000       1.00800           0
     26103 TIP3     1265     TIP3     OH2      OT      -0.834000       15.9994           0
     26104 TIP3     1265     TIP3     H1       HT       0.417000       1.00800           0
     26105 TIP3     1265     TIP3     H2       HT       0.417000       1.00800           0
     26106 TIP3     1266     TIP3     OH2      OT      -0.834000       15.9994           0
     26107 TIP3     1266     TIP3     H1       HT       0.417000       1.00800           0
     26108 TIP3     1266     TIP3     H2       HT       0.417000       1.00800           0
     26109 TIP3     1267     TIP3     OH2      OT      -0.834000       15.9994           0
     26110 TIP3     1267     TIP3     H1       HT       0.417000       1.00800           0
     26111 TIP3     1267     TIP3     H2       HT       0.417000       1.00800           0
     26112 TIP3     1268     TIP3     OH2      OT      -0.834000       15.9994           0
     26113 TIP3     1268     TIP3     H1       HT       0.417000       1.00800           0
     26114 TIP3     1268     TIP3     H2       HT       0.417000       1.00800           0
     26115 TIP3     1269     TIP3     OH2      OT      -0.834000       15.9994           0
     26116 TIP3     1269     TIP3     H1       HT       0.417000       1.00800           0
     26117 TIP3     1269     TIP3     H2       HT       0.417000       1.00800           0
     26118 TIP3     1270     TIP3     OH2      OT      -0.834000       15.9994           0
     26119 TIP3     1270     TIP3     H1       HT       0.417000       1.00800           0
     26120 TIP3     1270     TIP3     H2       HT       0.417000       1.00800           0
     26121 TIP3     1271     TIP3     OH2      OT      -0.834000       15.9994           0
     26122 TIP3     1271     TIP3     H1       HT       0.417000       1.00800           0
     26123 TIP3     1271     TIP3     H2       HT       0.417000       1.00800           0
     26124 TIP3     1272     TIP3     OH2      OT      -0.834000       15.9994           0
     26125 TIP3     1272     TIP3     H1       HT       0.417000       1.00800           0
     26126 TIP3     1272     TIP3     H2       HT       0.417000       1.00800           0
     26127 TIP3     1273     TIP3     OH2      OT      -0.834000       15.9994           0
     26128 TIP3     1273     TIP3     H1       HT       0.417000       1.00800           0
     26129 TIP3     1273     TIP3     H2       HT       0.417000       1.00800           0
     26130 TIP3     1274     TIP3     OH2      OT      -0.834000       15.9994           0
     26131 TIP3     1274     TIP3     H1       HT       0.417000       1.00800           0
     26132 TIP3     1274     TIP3     H2       HT       0.417000       1.00800           0
     26133 TIP3     1275     TIP3     OH2      OT      -0.834000       15.9994           0
     26134 TIP3     1275     TIP3     H1       HT       0.417000       1.00800           0
     26135 TIP3     1275     TIP3     H2       HT       0.417000       1.00800           0
     26136 TIP3     1276     TIP3     OH2      OT      -0.834000       15.9994           0
     26137 TIP3     1276     TIP3     H1       HT       0.417000       1.00800           0
     26138 TIP3     1276     TIP3     H2       HT       0.417000       1.00800           0
     26139 TIP3     1277     TIP3     OH2      OT      -0.834000       15.9994           0
     26140 TIP3     1277     TIP3     H1       HT       0.417000       1.00800           0
     26141 TIP3     1277     TIP3     H2       HT       0.417000       1.00800           0
     26142 TIP3     1278     TIP3     OH2      OT      -0.834000       15.9994           0
     26143 TIP3     1278     TIP3     H1       HT       0.417000       1.00800           0
     26144 TIP3     1278     TIP3     H2       HT       0.417000       1.00800           0
     26145 TIP3     1279     TIP3     OH2      OT      -0.834000       15.9994           0
     26146 TIP3     1279     TIP3     H1       HT       0.417000       1.00800           0
     26147 TIP3     1279     TIP3     H2       HT       0.417000       1.00800           0
     26148 TIP3     1280     TIP3     OH2      OT      -0.834000       15.9994           0
     26149 TIP3     1280     TIP3     H1       HT       0.417000       1.00800           0
     26150 TIP3     1280     TIP3     H2       HT       0.417000       1.00800           0
     26151 TIP3     1281     TIP3     OH2      OT      -0.834000       15.9994           0
     26152 TIP3     1281     TIP3     H1       HT       0.417000       1.00800           0
     26153 TIP3     1281     TIP3     H2       HT       0.417000       1.00800           0
     26154 TIP3     1282     TIP3     OH2      OT      -0.834000       15.9994           0
     26155 TIP3     1282     TIP3     H1       HT       0.417000       1.00800           0
     26156 TIP3     1282     TIP3     H2       HT       0.417000       1.00800           0
     26157 TIP3     1283     TIP3     OH2      OT      -0.834000       15.9994           0
     26158 TIP3     1283     TIP3     H1       HT       0.417000       1.00800           0
     26159 TIP3     1283     TIP3     H2       HT       0.417000       1.00800           0
     26160 TIP3     1284     TIP3     OH2      OT      -0.834000       15.9994           0
     26161 TIP3     1284     TIP3     H1       HT       0.417000       1.00800           0
     26162 TIP3     1284     TIP3     H2       HT       0.417000       1.00800           0
     26163 TIP3     1285     TIP3     OH2      OT      -0.834000       15.9994           0
     26164 TIP3     1285     TIP3     H1       HT       0.417000       1.00800           0
     26165 TIP3     1285     TIP3     H2       HT       0.417000       1.00800           0
     26166 TIP3     1286     TIP3     OH2      OT      -0.834000       15.9994           0
     26167 TIP3     1286     TIP3     H1       HT       0.417000       1.00800           0
     26168 TIP3     1286     TIP3     H2       HT       0.417000       1.00800           0
     26169 TIP3     1287     TIP3     OH2      OT      -0.834000       15.9994           0
     26170 TIP3     1287     TIP3     H1       HT       0.417000       1.00800           0
     26171 TIP3     1287     TIP3     H2       HT       0.417000       1.00800           0
     26172 TIP3     1288     TIP3     OH2      OT      -0.834000       15.9994           0
     26173 TIP3     1288     TIP3     H1       HT       0.417000       1.00800           0
     26174 TIP3     1288     TIP3     H2       HT       0.417000       1.00800           0
     26175 TIP3     1289     TIP3     OH2      OT      -0.834000       15.9994           0
     26176 TIP3     1289     TIP3     H1       HT       0.417000       1.00800           0
     26177 TIP3     1289     TIP3     H2       HT       0.417000       1.00800           0
     26178 TIP3     1290     TIP3     OH2      OT      -0.834000       15.9994           0
     26179 TIP3     1290     TIP3     H1       HT       0.417000       1.00800           0
     26180 TIP3     1290     TIP3     H2       HT       0.417000       1.00800           0
     26181 TIP3     1291     TIP3     OH2      OT      -0.834000       15.9994           0
     26182 TIP3     1291     TIP3     H1       HT       0.417000       1.00800           0
     26183 TIP3     1291     TIP3     H2       HT       0.417000       1.00800           0
     26184 TIP3     1292     TIP3     OH2      OT      -0.834000       15.9994           0
     26185 TIP3     1292     TIP3     H1       HT       0.417000       1.00800           0
     26186 TIP3     1292     TIP3     H2       HT       0.417000       1.00800           0
     26187 TIP3     1293     TIP3     OH2      OT      -0.834000       15.9994           0
     26188 TIP3     1293     TIP3     H1       HT       0.417000       1.00800           0
     26189 TIP3     1293     TIP3     H2       HT       0.417000       1.00800           0
     26190 TIP3     1294     TIP3     OH2      OT      -0.834000       15.9994           0
     26191 TIP3     1294     TIP3     H1       HT       0.417000       1.00800           0
     26192 TIP3     1294     TIP3     H2       HT       0.417000       1.00800           0
     26193 TIP3     1295     TIP3     OH2      OT      -0.834000       15.9994           0
     26194 TIP3     1295     TIP3     H1       HT       0.417000       1.00800           0
     26195 TIP3     1295     TIP3     H2       HT       0.417000       1.00800           0
     26196 TIP3     1296     TIP3     OH2      OT      -0.834000       15.9994           0
     26197 TIP3     1296     TIP3     H1       HT       0.417000       1.00800           0
     26198 TIP3     1296     TIP3     H2       HT       0.417000       1.00800           0
     26199 TIP3     1297     TIP3     OH2      OT      -0.834000       15.9994           0
     26200 TIP3     1297     TIP3     H1       HT       0.417000       1.00800           0
     26201 TIP3     1297     TIP3     H2       HT       0.417000       1.00800           0
     26202 TIP3     1298     TIP3     OH2      OT      -0.834000       15.9994           0
     26203 TIP3     1298     TIP3     H1       HT       0.417000       1.00800           0
     26204 TIP3     1298     TIP3     H2       HT       0.417000       1.00800           0
     26205 TIP3     1299     TIP3     OH2      OT      -0.834000       15.9994           0
     26206 TIP3     1299     TIP3     H1       HT       0.417000       1.00800           0
     26207 TIP3     1299     TIP3     H2       HT       0.417000       1.00800           0
     26208 TIP3     1300     TIP3     OH2      OT      -0.834000       15.9994           0
     26209 TIP3     1300     TIP3     H1       HT       0.417000       1.00800           0
     26210 TIP3     1300     TIP3     H2       HT       0.417000       1.00800           0
     26211 TIP3     1301     TIP3     OH2      OT      -0.834000       15.9994           0
     26212 TIP3     1301     TIP3     H1       HT       0.417000       1.00800           0
     26213 TIP3     1301     TIP3     H2       HT       0.417000       1.00800           0
     26214 TIP3     1302     TIP3     OH2      OT      -0.834000       15.9994           0
     26215 TIP3     1302     TIP3     H1       HT       0.417000       1.00800           0
     26216 TIP3     1302     TIP3     H2       HT       0.417000       1.00800           0
     26217 TIP3     1303     TIP3     OH2      OT      -0.834000       15.9994           0
     26218 TIP3     1303     TIP3     H1       HT       0.417000       1.00800           0
     26219 TIP3     1303     TIP3     H2       HT       0.417000       1.00800           0
     26220 TIP3     1304     TIP3     OH2      OT      -0.834000       15.9994           0
     26221 TIP3     1304     TIP3     H1       HT       0.417000       1.00800           0
     26222 TIP3     1304     TIP3     H2       HT       0.417000       1.00800           0
     26223 TIP3     1305     TIP3     OH2      OT      -0.834000       15.9994           0
     26224 TIP3     1305     TIP3     H1       HT       0.417000       1.00800           0
     26225 TIP3     1305     TIP3     H2       HT       0.417000       1.00800           0
     26226 TIP3     1306     TIP3     OH2      OT      -0.834000       15.9994           0
     26227 TIP3     1306     TIP3     H1       HT       0.417000       1.00800           0
     26228 TIP3     1306     TIP3     H2       HT       0.417000       1.00800           0
     26229 TIP3     1307     TIP3     OH2      OT      -0.834000       15.9994           0
     26230 TIP3     1307     TIP3     H1       HT       0.417000       1.00800           0
     26231 TIP3     1307     TIP3     H2       HT       0.417000       1.00800           0
     26232 TIP3     1308     TIP3     OH2      OT      -0.834000       15.9994           0
     26233 TIP3     1308     TIP3     H1       HT       0.417000       1.00800           0
     26234 TIP3     1308     TIP3     H2       HT       0.417000       1.00800           0
     26235 TIP3     1309     TIP3     OH2      OT      -0.834000       15.9994           0
     26236 TIP3     1309     TIP3     H1       HT       0.417000       1.00800           0
     26237 TIP3     1309     TIP3     H2       HT       0.417000       1.00800           0
     26238 TIP3     1310     TIP3     OH2      OT      -0.834000       15.9994           0
     26239 TIP3     1310     TIP3     H1       HT       0.417000       1.00800           0
     26240 TIP3     1310     TIP3     H2       HT       0.417000       1.00800           0
     26241 TIP3     1311     TIP3     OH2      OT      -0.834000       15.9994           0
     26242 TIP3     1311     TIP3     H1       HT       0.417000       1.00800           0
     26243 TIP3     1311     TIP3     H2       HT       0.417000       1.00800           0
     26244 TIP3     1312     TIP3     OH2      OT      -0.834000       15.9994           0
     26245 TIP3     1312     TIP3     H1       HT       0.417000       1.00800           0
     26246 TIP3     1312     TIP3     H2       HT       0.417000       1.00800           0
     26247 TIP3     1313     TIP3     OH2      OT      -0.834000       15.9994           0
     26248 TIP3     1313     TIP3     H1       HT       0.417000       1.00800           0
     26249 TIP3     1313     TIP3     H2       HT       0.417000       1.00800           0
     26250 TIP3     1314     TIP3     OH2      OT      -0.834000       15.9994           0
     26251 TIP3     1314     TIP3     H1       HT       0.417000       1.00800           0
     26252 TIP3     1314     TIP3     H2       HT       0.417000       1.00800           0
     26253 TIP3     1315     TIP3     OH2      OT      -0.834000       15.9994           0
     26254 TIP3     1315     TIP3     H1       HT       0.417000       1.00800           0
     26255 TIP3     1315     TIP3     H2       HT       0.417000       1.00800           0
     26256 TIP3     1316     TIP3     OH2      OT      -0.834000       15.9994           0
     26257 TIP3     1316     TIP3     H1       HT       0.417000       1.00800           0
     26258 TIP3     1316     TIP3     H2       HT       0.417000       1.00800           0
     26259 TIP3     1317     TIP3     OH2      OT      -0.834000       15.9994           0
     26260 TIP3     1317     TIP3     H1       HT       0.417000       1.00800           0
     26261 TIP3     1317     TIP3     H2       HT       0.417000       1.00800           0
     26262 TIP3     1318     TIP3     OH2      OT      -0.834000       15.9994           0
     26263 TIP3     1318     TIP3     H1       HT       0.417000       1.00800           0
     26264 TIP3     1318     TIP3     H2       HT       0.417000       1.00800           0
     26265 TIP3     1319     TIP3     OH2      OT      -0.834000       15.9994           0
     26266 TIP3     1319     TIP3     H1       HT       0.417000       1.00800           0
     26267 TIP3     1319     TIP3     H2       HT       0.417000       1.00800           0
     26268 TIP3     1320     TIP3     OH2      OT      -0.834000       15.9994           0
     26269 TIP3     1320     TIP3     H1       HT       0.417000       1.00800           0
     26270 TIP3     1320     TIP3     H2       HT       0.417000       1.00800           0
     26271 TIP3     1321     TIP3     OH2      OT      -0.834000       15.9994           0
     26272 TIP3     1321     TIP3     H1       HT       0.417000       1.00800           0
     26273 TIP3     1321     TIP3     H2       HT       0.417000       1.00800           0
     26274 TIP3     1322     TIP3     OH2      OT      -0.834000       15.9994           0
     26275 TIP3     1322     TIP3     H1       HT       0.417000       1.00800           0
     26276 TIP3     1322     TIP3     H2       HT       0.417000       1.00800           0
     26277 TIP3     1323     TIP3     OH2      OT      -0.834000       15.9994           0
     26278 TIP3     1323     TIP3     H1       HT       0.417000       1.00800           0
     26279 TIP3     1323     TIP3     H2       HT       0.417000       1.00800           0
     26280 TIP3     1324     TIP3     OH2      OT      -0.834000       15.9994           0
     26281 TIP3     1324     TIP3     H1       HT       0.417000       1.00800           0
     26282 TIP3     1324     TIP3     H2       HT       0.417000       1.00800           0
     26283 TIP3     1325     TIP3     OH2      OT      -0.834000       15.9994           0
     26284 TIP3     1325     TIP3     H1       HT       0.417000       1.00800           0
     26285 TIP3     1325     TIP3     H2       HT       0.417000       1.00800           0
     26286 TIP3     1326     TIP3     OH2      OT      -0.834000       15.9994           0
     26287 TIP3     1326     TIP3     H1       HT       0.417000       1.00800           0
     26288 TIP3     1326     TIP3     H2       HT       0.417000       1.00800           0
     26289 TIP3     1327     TIP3     OH2      OT      -0.834000       15.9994           0
     26290 TIP3     1327     TIP3     H1       HT       0.417000       1.00800           0
     26291 TIP3     1327     TIP3     H2       HT       0.417000       1.00800           0
     26292 TIP3     1328     TIP3     OH2      OT      -0.834000       15.9994           0
     26293 TIP3     1328     TIP3     H1       HT       0.417000       1.00800           0
     26294 TIP3     1328     TIP3     H2       HT       0.417000       1.00800           0
     26295 TIP3     1329     TIP3     OH2      OT      -0.834000       15.9994           0
     26296 TIP3     1329     TIP3     H1       HT       0.417000       1.00800           0
     26297 TIP3     1329     TIP3     H2       HT       0.417000       1.00800           0
     26298 TIP3     1330     TIP3     OH2      OT      -0.834000       15.9994           0
     26299 TIP3     1330     TIP3     H1       HT       0.417000       1.00800           0
     26300 TIP3     1330     TIP3     H2       HT       0.417000       1.00800           0
     26301 TIP3     1331     TIP3     OH2      OT      -0.834000       15.9994           0
     26302 TIP3     1331     TIP3     H1       HT       0.417000       1.00800           0
     26303 TIP3     1331     TIP3     H2       HT       0.417000       1.00800           0
     26304 TIP3     1332     TIP3     OH2      OT      -0.834000       15.9994           0
     26305 TIP3     1332     TIP3     H1       HT       0.417000       1.00800           0
     26306 TIP3     1332     TIP3     H2       HT       0.417000       1.00800           0
     26307 TIP3     1333     TIP3     OH2      OT      -0.834000       15.9994           0
     26308 TIP3     1333     TIP3     H1       HT       0.417000       1.00800           0
     26309 TIP3     1333     TIP3     H2       HT       0.417000       1.00800           0
     26310 TIP3     1334     TIP3     OH2      OT      -0.834000       15.9994           0
     26311 TIP3     1334     TIP3     H1       HT       0.417000       1.00800           0
     26312 TIP3     1334     TIP3     H2       HT       0.417000       1.00800           0
     26313 TIP3     1335     TIP3     OH2      OT      -0.834000       15.9994           0
     26314 TIP3     1335     TIP3     H1       HT       0.417000       1.00800           0
     26315 TIP3     1335     TIP3     H2       HT       0.417000       1.00800           0
     26316 TIP3     1336     TIP3     OH2      OT      -0.834000       15.9994           0
     26317 TIP3     1336     TIP3     H1       HT       0.417000       1.00800           0
     26318 TIP3     1336     TIP3     H2       HT       0.417000       1.00800           0
     26319 TIP3     1337     TIP3     OH2      OT      -0.834000       15.9994           0
     26320 TIP3     1337     TIP3     H1       HT       0.417000       1.00800           0
     26321 TIP3     1337     TIP3     H2       HT       0.417000       1.00800           0
     26322 TIP3     1338     TIP3     OH2      OT      -0.834000       15.9994           0
     26323 TIP3     1338     TIP3     H1       HT       0.417000       1.00800           0
     26324 TIP3     1338     TIP3     H2       HT       0.417000       1.00800           0
     26325 TIP3     1339     TIP3     OH2      OT      -0.834000       15.9994           0
     26326 TIP3     1339     TIP3     H1       HT       0.417000       1.00800           0
     26327 TIP3     1339     TIP3     H2       HT       0.417000       1.00800           0
     26328 TIP3     1340     TIP3     OH2      OT      -0.834000       15.9994           0
     26329 TIP3     1340     TIP3     H1       HT       0.417000       1.00800           0
     26330 TIP3     1340     TIP3     H2       HT       0.417000       1.00800           0
     26331 TIP3     1341     TIP3     OH2      OT      -0.834000       15.9994           0
     26332 TIP3     1341     TIP3     H1       HT       0.417000       1.00800           0
     26333 TIP3     1341     TIP3     H2       HT       0.417000       1.00800           0
     26334 TIP3     1342     TIP3     OH2      OT      -0.834000       15.9994           0
     26335 TIP3     1342     TIP3     H1       HT       0.417000       1.00800           0
     26336 TIP3     1342     TIP3     H2       HT       0.417000       1.00800           0
     26337 TIP3     1343     TIP3     OH2      OT      -0.834000       15.9994           0
     26338 TIP3     1343     TIP3     H1       HT       0.417000       1.00800           0
     26339 TIP3     1343     TIP3     H2       HT       0.417000       1.00800           0
     26340 TIP3     1344     TIP3     OH2      OT      -0.834000       15.9994           0
     26341 TIP3     1344     TIP3     H1       HT       0.417000       1.00800           0
     26342 TIP3     1344     TIP3     H2       HT       0.417000       1.00800           0
     26343 TIP3     1345     TIP3     OH2      OT      -0.834000       15.9994           0
     26344 TIP3     1345     TIP3     H1       HT       0.417000       1.00800           0
     26345 TIP3     1345     TIP3     H2       HT       0.417000       1.00800           0
     26346 TIP3     1346     TIP3     OH2      OT      -0.834000       15.9994           0
     26347 TIP3     1346     TIP3     H1       HT       0.417000       1.00800           0
     26348 TIP3     1346     TIP3     H2       HT       0.417000       1.00800           0
     26349 TIP3     1347     TIP3     OH2      OT      -0.834000       15.9994           0
     26350 TIP3     1347     TIP3     H1       HT       0.417000       1.00800           0
     26351 TIP3     1347     TIP3     H2       HT       0.417000       1.00800           0
     26352 TIP3     1348     TIP3     OH2      OT      -0.834000       15.9994           0
     26353 TIP3     1348     TIP3     H1       HT       0.417000       1.00800           0
     26354 TIP3     1348     TIP3     H2       HT       0.417000       1.00800           0
     26355 TIP3     1349     TIP3     OH2      OT      -0.834000       15.9994           0
     26356 TIP3     1349     TIP3     H1       HT       0.417000       1.00800           0
     26357 TIP3     1349     TIP3     H2       HT       0.417000       1.00800           0
     26358 TIP3     1350     TIP3     OH2      OT      -0.834000       15.9994           0
     26359 TIP3     1350     TIP3     H1       HT       0.417000       1.00800           0
     26360 TIP3     1350     TIP3     H2       HT       0.417000       1.00800           0
     26361 TIP3     1351     TIP3     OH2      OT      -0.834000       15.9994           0
     26362 TIP3     1351     TIP3     H1       HT       0.417000       1.00800           0
     26363 TIP3     1351     TIP3     H2       HT       0.417000       1.00800           0
     26364 TIP3     1352     TIP3     OH2      OT      -0.834000       15.9994           0
     26365 TIP3     1352     TIP3     H1       HT       0.417000       1.00800           0
     26366 TIP3     1352     TIP3     H2       HT       0.417000       1.00800           0
     26367 TIP3     1353     TIP3     OH2      OT      -0.834000       15.9994           0
     26368 TIP3     1353     TIP3     H1       HT       0.417000       1.00800           0
     26369 TIP3     1353     TIP3     H2       HT       0.417000       1.00800           0
     26370 TIP3     1354     TIP3     OH2      OT      -0.834000       15.9994           0
     26371 TIP3     1354     TIP3     H1       HT       0.417000       1.00800           0
     26372 TIP3     1354     TIP3     H2       HT       0.417000       1.00800           0
     26373 TIP3     1355     TIP3     OH2      OT      -0.834000       15.9994           0
     26374 TIP3     1355     TIP3     H1       HT       0.417000       1.00800           0
     26375 TIP3     1355     TIP3     H2       HT       0.417000       1.00800           0
     26376 TIP3     1356     TIP3     OH2      OT      -0.834000       15.9994           0
     26377 TIP3     1356     TIP3     H1       HT       0.417000       1.00800           0
     26378 TIP3     1356     TIP3     H2       HT       0.417000       1.00800           0
     26379 TIP3     1357     TIP3     OH2      OT      -0.834000       15.9994           0
     26380 TIP3     1357     TIP3     H1       HT       0.417000       1.00800           0
     26381 TIP3     1357     TIP3     H2       HT       0.417000       1.00800           0
     26382 TIP3     1358     TIP3     OH2      OT      -0.834000       15.9994           0
     26383 TIP3     1358     TIP3     H1       HT       0.417000       1.00800           0
     26384 TIP3     1358     TIP3     H2       HT       0.417000       1.00800           0
     26385 TIP3     1359     TIP3     OH2      OT      -0.834000       15.9994           0
     26386 TIP3     1359     TIP3     H1       HT       0.417000       1.00800           0
     26387 TIP3     1359     TIP3     H2       HT       0.417000       1.00800           0
     26388 TIP3     1360     TIP3     OH2      OT      -0.834000       15.9994           0
     26389 TIP3     1360     TIP3     H1       HT       0.417000       1.00800           0
     26390 TIP3     1360     TIP3     H2       HT       0.417000       1.00800           0
     26391 TIP3     1361     TIP3     OH2      OT      -0.834000       15.9994           0
     26392 TIP3     1361     TIP3     H1       HT       0.417000       1.00800           0
     26393 TIP3     1361     TIP3     H2       HT       0.417000       1.00800           0
     26394 TIP3     1362     TIP3     OH2      OT      -0.834000       15.9994           0
     26395 TIP3     1362     TIP3     H1       HT       0.417000       1.00800           0
     26396 TIP3     1362     TIP3     H2       HT       0.417000       1.00800           0
     26397 TIP3     1363     TIP3     OH2      OT      -0.834000       15.9994           0
     26398 TIP3     1363     TIP3     H1       HT       0.417000       1.00800           0
     26399 TIP3     1363     TIP3     H2       HT       0.417000       1.00800           0
     26400 TIP3     1364     TIP3     OH2      OT      -0.834000       15.9994           0
     26401 TIP3     1364     TIP3     H1       HT       0.417000       1.00800           0
     26402 TIP3     1364     TIP3     H2       HT       0.417000       1.00800           0
     26403 TIP3     1365     TIP3     OH2      OT      -0.834000       15.9994           0
     26404 TIP3     1365     TIP3     H1       HT       0.417000       1.00800           0
     26405 TIP3     1365     TIP3     H2       HT       0.417000       1.00800           0
     26406 TIP3     1366     TIP3     OH2      OT      -0.834000       15.9994           0
     26407 TIP3     1366     TIP3     H1       HT       0.417000       1.00800           0
     26408 TIP3     1366     TIP3     H2       HT       0.417000       1.00800           0
     26409 TIP3     1367     TIP3     OH2      OT      -0.834000       15.9994           0
     26410 TIP3     1367     TIP3     H1       HT       0.417000       1.00800           0
     26411 TIP3     1367     TIP3     H2       HT       0.417000       1.00800           0
     26412 TIP3     1368     TIP3     OH2      OT      -0.834000       15.9994           0
     26413 TIP3     1368     TIP3     H1       HT       0.417000       1.00800           0
     26414 TIP3     1368     TIP3     H2       HT       0.417000       1.00800           0
     26415 TIP3     1369     TIP3     OH2      OT      -0.834000       15.9994           0
     26416 TIP3     1369     TIP3     H1       HT       0.417000       1.00800           0
     26417 TIP3     1369     TIP3     H2       HT       0.417000       1.00800           0
     26418 TIP3     1370     TIP3     OH2      OT      -0.834000       15.9994           0
     26419 TIP3     1370     TIP3     H1       HT       0.417000       1.00800           0
     26420 TIP3     1370     TIP3     H2       HT       0.417000       1.00800           0
     26421 TIP3     1371     TIP3     OH2      OT      -0.834000       15.9994           0
     26422 TIP3     1371     TIP3     H1       HT       0.417000       1.00800           0
     26423 TIP3     1371     TIP3     H2       HT       0.417000       1.00800           0
     26424 TIP3     1372     TIP3     OH2      OT      -0.834000       15.9994           0
     26425 TIP3     1372     TIP3     H1       HT       0.417000       1.00800           0
     26426 TIP3     1372     TIP3     H2       HT       0.417000       1.00800           0
     26427 TIP3     1373     TIP3     OH2      OT      -0.834000       15.9994           0
     26428 TIP3     1373     TIP3     H1       HT       0.417000       1.00800           0
     26429 TIP3     1373     TIP3     H2       HT       0.417000       1.00800           0
     26430 TIP3     1374     TIP3     OH2      OT      -0.834000       15.9994           0
     26431 TIP3     1374     TIP3     H1       HT       0.417000       1.00800           0
     26432 TIP3     1374     TIP3     H2       HT       0.417000       1.00800           0
     26433 TIP3     1375     TIP3     OH2      OT      -0.834000       15.9994           0
     26434 TIP3     1375     TIP3     H1       HT       0.417000       1.00800           0
     26435 TIP3     1375     TIP3     H2       HT       0.417000       1.00800           0
     26436 TIP3     1376     TIP3     OH2      OT      -0.834000       15.9994           0
     26437 TIP3     1376     TIP3     H1       HT       0.417000       1.00800           0
     26438 TIP3     1376     TIP3     H2       HT       0.417000       1.00800           0
     26439 TIP3     1377     TIP3     OH2      OT      -0.834000       15.9994           0
     26440 TIP3     1377     TIP3     H1       HT       0.417000       1.00800           0
     26441 TIP3     1377     TIP3     H2       HT       0.417000       1.00800           0
     26442 TIP3     1378     TIP3     OH2      OT      -0.834000       15.9994           0
     26443 TIP3     1378     TIP3     H1       HT       0.417000       1.00800           0
     26444 TIP3     1378     TIP3     H2       HT       0.417000       1.00800           0
     26445 TIP3     1379     TIP3     OH2      OT      -0.834000       15.9994           0
     26446 TIP3     1379     TIP3     H1       HT       0.417000       1.00800           0
     26447 TIP3     1379     TIP3     H2       HT       0.417000       1.00800           0
     26448 TIP3     1380     TIP3     OH2      OT      -0.834000       15.9994           0
     26449 TIP3     1380     TIP3     H1       HT       0.417000       1.00800           0
     26450 TIP3     1380     TIP3     H2       HT       0.417000       1.00800           0
     26451 TIP3     1381     TIP3     OH2      OT      -0.834000       15.9994           0
     26452 TIP3     1381     TIP3     H1       HT       0.417000       1.00800           0
     26453 TIP3     1381     TIP3     H2       HT       0.417000       1.00800           0
     26454 TIP3     1382     TIP3     OH2      OT      -0.834000       15.9994           0
     26455 TIP3     1382     TIP3     H1       HT       0.417000       1.00800           0
     26456 TIP3     1382     TIP3     H2       HT       0.417000       1.00800           0
     26457 TIP3     1383     TIP3     OH2      OT      -0.834000       15.9994           0
     26458 TIP3     1383     TIP3     H1       HT       0.417000       1.00800           0
     26459 TIP3     1383     TIP3     H2       HT       0.417000       1.00800           0
     26460 TIP3     1384     TIP3     OH2      OT      -0.834000       15.9994           0
     26461 TIP3     1384     TIP3     H1       HT       0.417000       1.00800           0
     26462 TIP3     1384     TIP3     H2       HT       0.417000       1.00800           0
     26463 TIP3     1385     TIP3     OH2      OT      -0.834000       15.9994           0
     26464 TIP3     1385     TIP3     H1       HT       0.417000       1.00800           0
     26465 TIP3     1385     TIP3     H2       HT       0.417000       1.00800           0
     26466 TIP3     1386     TIP3     OH2      OT      -0.834000       15.9994           0
     26467 TIP3     1386     TIP3     H1       HT       0.417000       1.00800           0
     26468 TIP3     1386     TIP3     H2       HT       0.417000       1.00800           0
     26469 TIP3     1387     TIP3     OH2      OT      -0.834000       15.9994           0
     26470 TIP3     1387     TIP3     H1       HT       0.417000       1.00800           0
     26471 TIP3     1387     TIP3     H2       HT       0.417000       1.00800           0
     26472 TIP3     1388     TIP3     OH2      OT      -0.834000       15.9994           0
     26473 TIP3     1388     TIP3     H1       HT       0.417000       1.00800           0
     26474 TIP3     1388     TIP3     H2       HT       0.417000       1.00800           0
     26475 TIP3     1389     TIP3     OH2      OT      -0.834000       15.9994           0
     26476 TIP3     1389     TIP3     H1       HT       0.417000       1.00800           0
     26477 TIP3     1389     TIP3     H2       HT       0.417000       1.00800           0
     26478 TIP3     1390     TIP3     OH2      OT      -0.834000       15.9994           0
     26479 TIP3     1390     TIP3     H1       HT       0.417000       1.00800           0
     26480 TIP3     1390     TIP3     H2       HT       0.417000       1.00800           0
     26481 TIP3     1391     TIP3     OH2      OT      -0.834000       15.9994           0
     26482 TIP3     1391     TIP3     H1       HT       0.417000       1.00800           0
     26483 TIP3     1391     TIP3     H2       HT       0.417000       1.00800           0
     26484 TIP3     1392     TIP3     OH2      OT      -0.834000       15.9994           0
     26485 TIP3     1392     TIP3     H1       HT       0.417000       1.00800           0
     26486 TIP3     1392     TIP3     H2       HT       0.417000       1.00800           0
     26487 TIP3     1393     TIP3     OH2      OT      -0.834000       15.9994           0
     26488 TIP3     1393     TIP3     H1       HT       0.417000       1.00800           0
     26489 TIP3     1393     TIP3     H2       HT       0.417000       1.00800           0
     26490 TIP3     1394     TIP3     OH2      OT      -0.834000       15.9994           0
     26491 TIP3     1394     TIP3     H1       HT       0.417000       1.00800           0
     26492 TIP3     1394     TIP3     H2       HT       0.417000       1.00800           0
     26493 TIP3     1395     TIP3     OH2      OT      -0.834000       15.9994           0
     26494 TIP3     1395     TIP3     H1       HT       0.417000       1.00800           0
     26495 TIP3     1395     TIP3     H2       HT       0.417000       1.00800           0
     26496 TIP3     1396     TIP3     OH2      OT      -0.834000       15.9994           0
     26497 TIP3     1396     TIP3     H1       HT       0.417000       1.00800           0
     26498 TIP3     1396     TIP3     H2       HT       0.417000       1.00800           0
     26499 TIP3     1397     TIP3     OH2      OT      -0.834000       15.9994           0
     26500 TIP3     1397     TIP3     H1       HT       0.417000       1.00800           0
     26501 TIP3     1397     TIP3     H2       HT       0.417000       1.00800           0
     26502 TIP3     1398     TIP3     OH2      OT      -0.834000       15.9994           0
     26503 TIP3     1398     TIP3     H1       HT       0.417000       1.00800           0
     26504 TIP3     1398     TIP3     H2       HT       0.417000       1.00800           0
     26505 TIP3     1399     TIP3     OH2      OT      -0.834000       15.9994           0
     26506 TIP3     1399     TIP3     H1       HT       0.417000       1.00800           0
     26507 TIP3     1399     TIP3     H2       HT       0.417000       1.00800           0
     26508 TIP3     1400     TIP3     OH2      OT      -0.834000       15.9994           0
     26509 TIP3     1400     TIP3     H1       HT       0.417000       1.00800           0
     26510 TIP3     1400     TIP3     H2       HT       0.417000       1.00800           0
     26511 TIP3     1401     TIP3     OH2      OT      -0.834000       15.9994           0
     26512 TIP3     1401     TIP3     H1       HT       0.417000       1.00800           0
     26513 TIP3     1401     TIP3     H2       HT       0.417000       1.00800           0
     26514 TIP3     1402     TIP3     OH2      OT      -0.834000       15.9994           0
     26515 TIP3     1402     TIP3     H1       HT       0.417000       1.00800           0
     26516 TIP3     1402     TIP3     H2       HT       0.417000       1.00800           0
     26517 TIP3     1403     TIP3     OH2      OT      -0.834000       15.9994           0
     26518 TIP3     1403     TIP3     H1       HT       0.417000       1.00800           0
     26519 TIP3     1403     TIP3     H2       HT       0.417000       1.00800           0
     26520 TIP3     1404     TIP3     OH2      OT      -0.834000       15.9994           0
     26521 TIP3     1404     TIP3     H1       HT       0.417000       1.00800           0
     26522 TIP3     1404     TIP3     H2       HT       0.417000       1.00800           0
     26523 TIP3     1405     TIP3     OH2      OT      -0.834000       15.9994           0
     26524 TIP3     1405     TIP3     H1       HT       0.417000       1.00800           0
     26525 TIP3     1405     TIP3     H2       HT       0.417000       1.00800           0
     26526 TIP3     1406     TIP3     OH2      OT      -0.834000       15.9994           0
     26527 TIP3     1406     TIP3     H1       HT       0.417000       1.00800           0
     26528 TIP3     1406     TIP3     H2       HT       0.417000       1.00800           0
     26529 TIP3     1407     TIP3     OH2      OT      -0.834000       15.9994           0
     26530 TIP3     1407     TIP3     H1       HT       0.417000       1.00800           0
     26531 TIP3     1407     TIP3     H2       HT       0.417000       1.00800           0
     26532 TIP3     1408     TIP3     OH2      OT      -0.834000       15.9994           0
     26533 TIP3     1408     TIP3     H1       HT       0.417000       1.00800           0
     26534 TIP3     1408     TIP3     H2       HT       0.417000       1.00800           0
     26535 TIP3     1409     TIP3     OH2      OT      -0.834000       15.9994           0
     26536 TIP3     1409     TIP3     H1       HT       0.417000       1.00800           0
     26537 TIP3     1409     TIP3     H2       HT       0.417000       1.00800           0
     26538 TIP3     1410     TIP3     OH2      OT      -0.834000       15.9994           0
     26539 TIP3     1410     TIP3     H1       HT       0.417000       1.00800           0
     26540 TIP3     1410     TIP3     H2       HT       0.417000       1.00800           0
     26541 TIP3     1411     TIP3     OH2      OT      -0.834000       15.9994           0
     26542 TIP3     1411     TIP3     H1       HT       0.417000       1.00800           0
     26543 TIP3     1411     TIP3     H2       HT       0.417000       1.00800           0
     26544 TIP3     1412     TIP3     OH2      OT      -0.834000       15.9994           0
     26545 TIP3     1412     TIP3     H1       HT       0.417000       1.00800           0
     26546 TIP3     1412     TIP3     H2       HT       0.417000       1.00800           0
     26547 TIP3     1413     TIP3     OH2      OT      -0.834000       15.9994           0
     26548 TIP3     1413     TIP3     H1       HT       0.417000       1.00800           0
     26549 TIP3     1413     TIP3     H2       HT       0.417000       1.00800           0
     26550 TIP3     1414     TIP3     OH2      OT      -0.834000       15.9994           0
     26551 TIP3     1414     TIP3     H1       HT       0.417000       1.00800           0
     26552 TIP3     1414     TIP3     H2       HT       0.417000       1.00800           0
     26553 TIP3     1415     TIP3     OH2      OT      -0.834000       15.9994           0
     26554 TIP3     1415     TIP3     H1       HT       0.417000       1.00800           0
     26555 TIP3     1415     TIP3     H2       HT       0.417000       1.00800           0
     26556 TIP3     1416     TIP3     OH2      OT      -0.834000       15.9994           0
     26557 TIP3     1416     TIP3     H1       HT       0.417000       1.00800           0
     26558 TIP3     1416     TIP3     H2       HT       0.417000       1.00800           0
     26559 TIP3     1417     TIP3     OH2      OT      -0.834000       15.9994           0
     26560 TIP3     1417     TIP3     H1       HT       0.417000       1.00800           0
     26561 TIP3     1417     TIP3     H2       HT       0.417000       1.00800           0
     26562 TIP3     1418     TIP3     OH2      OT      -0.834000       15.9994           0
     26563 TIP3     1418     TIP3     H1       HT       0.417000       1.00800           0
     26564 TIP3     1418     TIP3     H2       HT       0.417000       1.00800           0
     26565 TIP3     1419     TIP3     OH2      OT      -0.834000       15.9994           0
     26566 TIP3     1419     TIP3     H1       HT       0.417000       1.00800           0
     26567 TIP3     1419     TIP3     H2       HT       0.417000       1.00800           0
     26568 TIP3     1420     TIP3     OH2      OT      -0.834000       15.9994           0
     26569 TIP3     1420     TIP3     H1       HT       0.417000       1.00800           0
     26570 TIP3     1420     TIP3     H2       HT       0.417000       1.00800           0
     26571 TIP3     1421     TIP3     OH2      OT      -0.834000       15.9994           0
     26572 TIP3     1421     TIP3     H1       HT       0.417000       1.00800           0
     26573 TIP3     1421     TIP3     H2       HT       0.417000       1.00800           0
     26574 TIP3     1422     TIP3     OH2      OT      -0.834000       15.9994           0
     26575 TIP3     1422     TIP3     H1       HT       0.417000       1.00800           0
     26576 TIP3     1422     TIP3     H2       HT       0.417000       1.00800           0
     26577 TIP3     1423     TIP3     OH2      OT      -0.834000       15.9994           0
     26578 TIP3     1423     TIP3     H1       HT       0.417000       1.00800           0
     26579 TIP3     1423     TIP3     H2       HT       0.417000       1.00800           0
     26580 TIP3     1424     TIP3     OH2      OT      -0.834000       15.9994           0
     26581 TIP3     1424     TIP3     H1       HT       0.417000       1.00800           0
     26582 TIP3     1424     TIP3     H2       HT       0.417000       1.00800           0
     26583 TIP3     1425     TIP3     OH2      OT      -0.834000       15.9994           0
     26584 TIP3     1425     TIP3     H1       HT       0.417000       1.00800           0
     26585 TIP3     1425     TIP3     H2       HT       0.417000       1.00800           0
     26586 TIP3     1426     TIP3     OH2      OT      -0.834000       15.9994           0
     26587 TIP3     1426     TIP3     H1       HT       0.417000       1.00800           0
     26588 TIP3     1426     TIP3     H2       HT       0.417000       1.00800           0
     26589 TIP3     1427     TIP3     OH2      OT      -0.834000       15.9994           0
     26590 TIP3     1427     TIP3     H1       HT       0.417000       1.00800           0
     26591 TIP3     1427     TIP3     H2       HT       0.417000       1.00800           0
     26592 TIP3     1428     TIP3     OH2      OT      -0.834000       15.9994           0
     26593 TIP3     1428     TIP3     H1       HT       0.417000       1.00800           0
     26594 TIP3     1428     TIP3     H2       HT       0.417000       1.00800           0
     26595 TIP3     1429     TIP3     OH2      OT      -0.834000       15.9994           0
     26596 TIP3     1429     TIP3     H1       HT       0.417000       1.00800           0
     26597 TIP3     1429     TIP3     H2       HT       0.417000       1.00800           0
     26598 TIP3     1430     TIP3     OH2      OT      -0.834000       15.9994           0
     26599 TIP3     1430     TIP3     H1       HT       0.417000       1.00800           0
     26600 TIP3     1430     TIP3     H2       HT       0.417000       1.00800           0
     26601 TIP3     1431     TIP3     OH2      OT      -0.834000       15.9994           0
     26602 TIP3     1431     TIP3     H1       HT       0.417000       1.00800           0
     26603 TIP3     1431     TIP3     H2       HT       0.417000       1.00800           0
     26604 TIP3     1432     TIP3     OH2      OT      -0.834000       15.9994           0
     26605 TIP3     1432     TIP3     H1       HT       0.417000       1.00800           0
     26606 TIP3     1432     TIP3     H2       HT       0.417000       1.00800           0
     26607 TIP3     1433     TIP3     OH2      OT      -0.834000       15.9994           0
     26608 TIP3     1433     TIP3     H1       HT       0.417000       1.00800           0
     26609 TIP3     1433     TIP3     H2       HT       0.417000       1.00800           0
     26610 TIP3     1434     TIP3     OH2      OT      -0.834000       15.9994           0
     26611 TIP3     1434     TIP3     H1       HT       0.417000       1.00800           0
     26612 TIP3     1434     TIP3     H2       HT       0.417000       1.00800           0
     26613 TIP3     1435     TIP3     OH2      OT      -0.834000       15.9994           0
     26614 TIP3     1435     TIP3     H1       HT       0.417000       1.00800           0
     26615 TIP3     1435     TIP3     H2       HT       0.417000       1.00800           0
     26616 TIP3     1436     TIP3     OH2      OT      -0.834000       15.9994           0
     26617 TIP3     1436     TIP3     H1       HT       0.417000       1.00800           0
     26618 TIP3     1436     TIP3     H2       HT       0.417000       1.00800           0
     26619 TIP3     1437     TIP3     OH2      OT      -0.834000       15.9994           0
     26620 TIP3     1437     TIP3     H1       HT       0.417000       1.00800           0
     26621 TIP3     1437     TIP3     H2       HT       0.417000       1.00800           0
     26622 TIP3     1438     TIP3     OH2      OT      -0.834000       15.9994           0
     26623 TIP3     1438     TIP3     H1       HT       0.417000       1.00800           0
     26624 TIP3     1438     TIP3     H2       HT       0.417000       1.00800           0
     26625 TIP3     1439     TIP3     OH2      OT      -0.834000       15.9994           0
     26626 TIP3     1439     TIP3     H1       HT       0.417000       1.00800           0
     26627 TIP3     1439     TIP3     H2       HT       0.417000       1.00800           0
     26628 TIP3     1440     TIP3     OH2      OT      -0.834000       15.9994           0
     26629 TIP3     1440     TIP3     H1       HT       0.417000       1.00800           0
     26630 TIP3     1440     TIP3     H2       HT       0.417000       1.00800           0
     26631 TIP3     1441     TIP3     OH2      OT      -0.834000       15.9994           0
     26632 TIP3     1441     TIP3     H1       HT       0.417000       1.00800           0
     26633 TIP3     1441     TIP3     H2       HT       0.417000       1.00800           0
     26634 TIP3     1442     TIP3     OH2      OT      -0.834000       15.9994           0
     26635 TIP3     1442     TIP3     H1       HT       0.417000       1.00800           0
     26636 TIP3     1442     TIP3     H2       HT       0.417000       1.00800           0
     26637 TIP3     1443     TIP3     OH2      OT      -0.834000       15.9994           0
     26638 TIP3     1443     TIP3     H1       HT       0.417000       1.00800           0
     26639 TIP3     1443     TIP3     H2       HT       0.417000       1.00800           0
     26640 TIP3     1444     TIP3     OH2      OT      -0.834000       15.9994           0
     26641 TIP3     1444     TIP3     H1       HT       0.417000       1.00800           0
     26642 TIP3     1444     TIP3     H2       HT       0.417000       1.00800           0
     26643 TIP3     1445     TIP3     OH2      OT      -0.834000       15.9994           0
     26644 TIP3     1445     TIP3     H1       HT       0.417000       1.00800           0
     26645 TIP3     1445     TIP3     H2       HT       0.417000       1.00800           0
     26646 TIP3     1446     TIP3     OH2      OT      -0.834000       15.9994           0
     26647 TIP3     1446     TIP3     H1       HT       0.417000       1.00800           0
     26648 TIP3     1446     TIP3     H2       HT       0.417000       1.00800           0
     26649 TIP3     1447     TIP3     OH2      OT      -0.834000       15.9994           0
     26650 TIP3     1447     TIP3     H1       HT       0.417000       1.00800           0
     26651 TIP3     1447     TIP3     H2       HT       0.417000       1.00800           0
     26652 TIP3     1448     TIP3     OH2      OT      -0.834000       15.9994           0
     26653 TIP3     1448     TIP3     H1       HT       0.417000       1.00800           0
     26654 TIP3     1448     TIP3     H2       HT       0.417000       1.00800           0
     26655 TIP3     1449     TIP3     OH2      OT      -0.834000       15.9994           0
     26656 TIP3     1449     TIP3     H1       HT       0.417000       1.00800           0
     26657 TIP3     1449     TIP3     H2       HT       0.417000       1.00800           0
     26658 TIP3     1450     TIP3     OH2      OT      -0.834000       15.9994           0
     26659 TIP3     1450     TIP3     H1       HT       0.417000       1.00800           0
     26660 TIP3     1450     TIP3     H2       HT       0.417000       1.00800           0
     26661 TIP3     1451     TIP3     OH2      OT      -0.834000       15.9994           0
     26662 TIP3     1451     TIP3     H1       HT       0.417000       1.00800           0
     26663 TIP3     1451     TIP3     H2       HT       0.417000       1.00800           0
     26664 TIP3     1452     TIP3     OH2      OT      -0.834000       15.9994           0
     26665 TIP3     1452     TIP3     H1       HT       0.417000       1.00800           0
     26666 TIP3     1452     TIP3     H2       HT       0.417000       1.00800           0
     26667 TIP3     1453     TIP3     OH2      OT      -0.834000       15.9994           0
     26668 TIP3     1453     TIP3     H1       HT       0.417000       1.00800           0
     26669 TIP3     1453     TIP3     H2       HT       0.417000       1.00800           0
     26670 TIP3     1454     TIP3     OH2      OT      -0.834000       15.9994           0
     26671 TIP3     1454     TIP3     H1       HT       0.417000       1.00800           0
     26672 TIP3     1454     TIP3     H2       HT       0.417000       1.00800           0
     26673 TIP3     1455     TIP3     OH2      OT      -0.834000       15.9994           0
     26674 TIP3     1455     TIP3     H1       HT       0.417000       1.00800           0
     26675 TIP3     1455     TIP3     H2       HT       0.417000       1.00800           0
     26676 TIP3     1456     TIP3     OH2      OT      -0.834000       15.9994           0
     26677 TIP3     1456     TIP3     H1       HT       0.417000       1.00800           0
     26678 TIP3     1456     TIP3     H2       HT       0.417000       1.00800           0
     26679 TIP3     1457     TIP3     OH2      OT      -0.834000       15.9994           0
     26680 TIP3     1457     TIP3     H1       HT       0.417000       1.00800           0
     26681 TIP3     1457     TIP3     H2       HT       0.417000       1.00800           0
     26682 TIP3     1458     TIP3     OH2      OT      -0.834000       15.9994           0
     26683 TIP3     1458     TIP3     H1       HT       0.417000       1.00800           0
     26684 TIP3     1458     TIP3     H2       HT       0.417000       1.00800           0
     26685 TIP3     1459     TIP3     OH2      OT      -0.834000       15.9994           0
     26686 TIP3     1459     TIP3     H1       HT       0.417000       1.00800           0
     26687 TIP3     1459     TIP3     H2       HT       0.417000       1.00800           0
     26688 TIP3     1460     TIP3     OH2      OT      -0.834000       15.9994           0
     26689 TIP3     1460     TIP3     H1       HT       0.417000       1.00800           0
     26690 TIP3     1460     TIP3     H2       HT       0.417000       1.00800           0
     26691 TIP3     1461     TIP3     OH2      OT      -0.834000       15.9994           0
     26692 TIP3     1461     TIP3     H1       HT       0.417000       1.00800           0
     26693 TIP3     1461     TIP3     H2       HT       0.417000       1.00800           0
     26694 TIP3     1462     TIP3     OH2      OT      -0.834000       15.9994           0
     26695 TIP3     1462     TIP3     H1       HT       0.417000       1.00800           0
     26696 TIP3     1462     TIP3     H2       HT       0.417000       1.00800           0
     26697 TIP3     1463     TIP3     OH2      OT      -0.834000       15.9994           0
     26698 TIP3     1463     TIP3     H1       HT       0.417000       1.00800           0
     26699 TIP3     1463     TIP3     H2       HT       0.417000       1.00800           0
     26700 TIP3     1464     TIP3     OH2      OT      -0.834000       15.9994           0
     26701 TIP3     1464     TIP3     H1       HT       0.417000       1.00800           0
     26702 TIP3     1464     TIP3     H2       HT       0.417000       1.00800           0
     26703 TIP3     1465     TIP3     OH2      OT      -0.834000       15.9994           0
     26704 TIP3     1465     TIP3     H1       HT       0.417000       1.00800           0
     26705 TIP3     1465     TIP3     H2       HT       0.417000       1.00800           0
     26706 TIP3     1466     TIP3     OH2      OT      -0.834000       15.9994           0
     26707 TIP3     1466     TIP3     H1       HT       0.417000       1.00800           0
     26708 TIP3     1466     TIP3     H2       HT       0.417000       1.00800           0
     26709 TIP3     1467     TIP3     OH2      OT      -0.834000       15.9994           0
     26710 TIP3     1467     TIP3     H1       HT       0.417000       1.00800           0
     26711 TIP3     1467     TIP3     H2       HT       0.417000       1.00800           0
     26712 TIP3     1468     TIP3     OH2      OT      -0.834000       15.9994           0
     26713 TIP3     1468     TIP3     H1       HT       0.417000       1.00800           0
     26714 TIP3     1468     TIP3     H2       HT       0.417000       1.00800           0
     26715 TIP3     1469     TIP3     OH2      OT      -0.834000       15.9994           0
     26716 TIP3     1469     TIP3     H1       HT       0.417000       1.00800           0
     26717 TIP3     1469     TIP3     H2       HT       0.417000       1.00800           0
     26718 TIP3     1470     TIP3     OH2      OT      -0.834000       15.9994           0
     26719 TIP3     1470     TIP3     H1       HT       0.417000       1.00800           0
     26720 TIP3     1470     TIP3     H2       HT       0.417000       1.00800           0
     26721 TIP3     1471     TIP3     OH2      OT      -0.834000       15.9994           0
     26722 TIP3     1471     TIP3     H1       HT       0.417000       1.00800           0
     26723 TIP3     1471     TIP3     H2       HT       0.417000       1.00800           0
     26724 TIP3     1472     TIP3     OH2      OT      -0.834000       15.9994           0
     26725 TIP3     1472     TIP3     H1       HT       0.417000       1.00800           0
     26726 TIP3     1472     TIP3     H2       HT       0.417000       1.00800           0
     26727 TIP3     1473     TIP3     OH2      OT      -0.834000       15.9994           0
     26728 TIP3     1473     TIP3     H1       HT       0.417000       1.00800           0
     26729 TIP3     1473     TIP3     H2       HT       0.417000       1.00800           0
     26730 TIP3     1474     TIP3     OH2      OT      -0.834000       15.9994           0
     26731 TIP3     1474     TIP3     H1       HT       0.417000       1.00800           0
     26732 TIP3     1474     TIP3     H2       HT       0.417000       1.00800           0
     26733 TIP3     1475     TIP3     OH2      OT      -0.834000       15.9994           0
     26734 TIP3     1475     TIP3     H1       HT       0.417000       1.00800           0
     26735 TIP3     1475     TIP3     H2       HT       0.417000       1.00800           0
     26736 TIP3     1476     TIP3     OH2      OT      -0.834000       15.9994           0
     26737 TIP3     1476     TIP3     H1       HT       0.417000       1.00800           0
     26738 TIP3     1476     TIP3     H2       HT       0.417000       1.00800           0
     26739 TIP3     1477     TIP3     OH2      OT      -0.834000       15.9994           0
     26740 TIP3     1477     TIP3     H1       HT       0.417000       1.00800           0
     26741 TIP3     1477     TIP3     H2       HT       0.417000       1.00800           0
     26742 TIP3     1478     TIP3     OH2      OT      -0.834000       15.9994           0
     26743 TIP3     1478     TIP3     H1       HT       0.417000       1.00800           0
     26744 TIP3     1478     TIP3     H2       HT       0.417000       1.00800           0
     26745 TIP3     1479     TIP3     OH2      OT      -0.834000       15.9994           0
     26746 TIP3     1479     TIP3     H1       HT       0.417000       1.00800           0
     26747 TIP3     1479     TIP3     H2       HT       0.417000       1.00800           0
     26748 TIP3     1480     TIP3     OH2      OT      -0.834000       15.9994           0
     26749 TIP3     1480     TIP3     H1       HT       0.417000       1.00800           0
     26750 TIP3     1480     TIP3     H2       HT       0.417000       1.00800           0
     26751 TIP3     1481     TIP3     OH2      OT      -0.834000       15.9994           0
     26752 TIP3     1481     TIP3     H1       HT       0.417000       1.00800           0
     26753 TIP3     1481     TIP3     H2       HT       0.417000       1.00800           0
     26754 TIP3     1482     TIP3     OH2      OT      -0.834000       15.9994           0
     26755 TIP3     1482     TIP3     H1       HT       0.417000       1.00800           0
     26756 TIP3     1482     TIP3     H2       HT       0.417000       1.00800           0
     26757 TIP3     1483     TIP3     OH2      OT      -0.834000       15.9994           0
     26758 TIP3     1483     TIP3     H1       HT       0.417000       1.00800           0
     26759 TIP3     1483     TIP3     H2       HT       0.417000       1.00800           0
     26760 TIP3     1484     TIP3     OH2      OT      -0.834000       15.9994           0
     26761 TIP3     1484     TIP3     H1       HT       0.417000       1.00800           0
     26762 TIP3     1484     TIP3     H2       HT       0.417000       1.00800           0
     26763 TIP3     1485     TIP3     OH2      OT      -0.834000       15.9994           0
     26764 TIP3     1485     TIP3     H1       HT       0.417000       1.00800           0
     26765 TIP3     1485     TIP3     H2       HT       0.417000       1.00800           0
     26766 TIP3     1486     TIP3     OH2      OT      -0.834000       15.9994           0
     26767 TIP3     1486     TIP3     H1       HT       0.417000       1.00800           0
     26768 TIP3     1486     TIP3     H2       HT       0.417000       1.00800           0
     26769 TIP3     1487     TIP3     OH2      OT      -0.834000       15.9994           0
     26770 TIP3     1487     TIP3     H1       HT       0.417000       1.00800           0
     26771 TIP3     1487     TIP3     H2       HT       0.417000       1.00800           0
     26772 TIP3     1488     TIP3     OH2      OT      -0.834000       15.9994           0
     26773 TIP3     1488     TIP3     H1       HT       0.417000       1.00800           0
     26774 TIP3     1488     TIP3     H2       HT       0.417000       1.00800           0
     26775 TIP3     1489     TIP3     OH2      OT      -0.834000       15.9994           0
     26776 TIP3     1489     TIP3     H1       HT       0.417000       1.00800           0
     26777 TIP3     1489     TIP3     H2       HT       0.417000       1.00800           0
     26778 TIP3     1490     TIP3     OH2      OT      -0.834000       15.9994           0
     26779 TIP3     1490     TIP3     H1       HT       0.417000       1.00800           0
     26780 TIP3     1490     TIP3     H2       HT       0.417000       1.00800           0
     26781 TIP3     1491     TIP3     OH2      OT      -0.834000       15.9994           0
     26782 TIP3     1491     TIP3     H1       HT       0.417000       1.00800           0
     26783 TIP3     1491     TIP3     H2       HT       0.417000       1.00800           0
     26784 TIP3     1492     TIP3     OH2      OT      -0.834000       15.9994           0
     26785 TIP3     1492     TIP3     H1       HT       0.417000       1.00800           0
     26786 TIP3     1492     TIP3     H2       HT       0.417000       1.00800           0
     26787 TIP3     1493     TIP3     OH2      OT      -0.834000       15.9994           0
     26788 TIP3     1493     TIP3     H1       HT       0.417000       1.00800           0
     26789 TIP3     1493     TIP3     H2       HT       0.417000       1.00800           0
     26790 TIP3     1494     TIP3     OH2      OT      -0.834000       15.9994           0
     26791 TIP3     1494     TIP3     H1       HT       0.417000       1.00800           0
     26792 TIP3     1494     TIP3     H2       HT       0.417000       1.00800           0
     26793 TIP3     1495     TIP3     OH2      OT      -0.834000       15.9994           0
     26794 TIP3     1495     TIP3     H1       HT       0.417000       1.00800           0
     26795 TIP3     1495     TIP3     H2       HT       0.417000       1.00800           0
     26796 TIP3     1496     TIP3     OH2      OT      -0.834000       15.9994           0
     26797 TIP3     1496     TIP3     H1       HT       0.417000       1.00800           0
     26798 TIP3     1496     TIP3     H2       HT       0.417000       1.00800           0
     26799 TIP3     1497     TIP3     OH2      OT      -0.834000       15.9994           0
     26800 TIP3     1497     TIP3     H1       HT       0.417000       1.00800           0
     26801 TIP3     1497     TIP3     H2       HT       0.417000       1.00800           0
     26802 TIP3     1498     TIP3     OH2      OT      -0.834000       15.9994           0
     26803 TIP3     1498     TIP3     H1       HT       0.417000       1.00800           0
     26804 TIP3     1498     TIP3     H2       HT       0.417000       1.00800           0
     26805 TIP3     1499     TIP3     OH2      OT      -0.834000       15.9994           0
     26806 TIP3     1499     TIP3     H1       HT       0.417000       1.00800           0
     26807 TIP3     1499     TIP3     H2       HT       0.417000       1.00800           0
     26808 TIP3     1500     TIP3     OH2      OT      -0.834000       15.9994           0
     26809 TIP3     1500     TIP3     H1       HT       0.417000       1.00800           0
     26810 TIP3     1500     TIP3     H2       HT       0.417000       1.00800           0
     26811 TIP3     1501     TIP3     OH2      OT      -0.834000       15.9994           0
     26812 TIP3     1501     TIP3     H1       HT       0.417000       1.00800           0
     26813 TIP3     1501     TIP3     H2       HT       0.417000       1.00800           0
     26814 TIP3     1502     TIP3     OH2      OT      -0.834000       15.9994           0
     26815 TIP3     1502     TIP3     H1       HT       0.417000       1.00800           0
     26816 TIP3     1502     TIP3     H2       HT       0.417000       1.00800           0
     26817 TIP3     1503     TIP3     OH2      OT      -0.834000       15.9994           0
     26818 TIP3     1503     TIP3     H1       HT       0.417000       1.00800           0
     26819 TIP3     1503     TIP3     H2       HT       0.417000       1.00800           0
     26820 TIP3     1504     TIP3     OH2      OT      -0.834000       15.9994           0
     26821 TIP3     1504     TIP3     H1       HT       0.417000       1.00800           0
     26822 TIP3     1504     TIP3     H2       HT       0.417000       1.00800           0
     26823 TIP3     1505     TIP3     OH2      OT      -0.834000       15.9994           0
     26824 TIP3     1505     TIP3     H1       HT       0.417000       1.00800           0
     26825 TIP3     1505     TIP3     H2       HT       0.417000       1.00800           0
     26826 TIP3     1506     TIP3     OH2      OT      -0.834000       15.9994           0
     26827 TIP3     1506     TIP3     H1       HT       0.417000       1.00800           0
     26828 TIP3     1506     TIP3     H2       HT       0.417000       1.00800           0
     26829 TIP3     1507     TIP3     OH2      OT      -0.834000       15.9994           0
     26830 TIP3     1507     TIP3     H1       HT       0.417000       1.00800           0
     26831 TIP3     1507     TIP3     H2       HT       0.417000       1.00800           0
     26832 TIP3     1508     TIP3     OH2      OT      -0.834000       15.9994           0
     26833 TIP3     1508     TIP3     H1       HT       0.417000       1.00800           0
     26834 TIP3     1508     TIP3     H2       HT       0.417000       1.00800           0
     26835 TIP3     1509     TIP3     OH2      OT      -0.834000       15.9994           0
     26836 TIP3     1509     TIP3     H1       HT       0.417000       1.00800           0
     26837 TIP3     1509     TIP3     H2       HT       0.417000       1.00800           0
     26838 TIP3     1510     TIP3     OH2      OT      -0.834000       15.9994           0
     26839 TIP3     1510     TIP3     H1       HT       0.417000       1.00800           0
     26840 TIP3     1510     TIP3     H2       HT       0.417000       1.00800           0
     26841 TIP3     1511     TIP3     OH2      OT      -0.834000       15.9994           0
     26842 TIP3     1511     TIP3     H1       HT       0.417000       1.00800           0
     26843 TIP3     1511     TIP3     H2       HT       0.417000       1.00800           0
     26844 TIP3     1512     TIP3     OH2      OT      -0.834000       15.9994           0
     26845 TIP3     1512     TIP3     H1       HT       0.417000       1.00800           0
     26846 TIP3     1512     TIP3     H2       HT       0.417000       1.00800           0
     26847 TIP3     1513     TIP3     OH2      OT      -0.834000       15.9994           0
     26848 TIP3     1513     TIP3     H1       HT       0.417000       1.00800           0
     26849 TIP3     1513     TIP3     H2       HT       0.417000       1.00800           0
     26850 TIP3     1514     TIP3     OH2      OT      -0.834000       15.9994           0
     26851 TIP3     1514     TIP3     H1       HT       0.417000       1.00800           0
     26852 TIP3     1514     TIP3     H2       HT       0.417000       1.00800           0
     26853 TIP3     1515     TIP3     OH2      OT      -0.834000       15.9994           0
     26854 TIP3     1515     TIP3     H1       HT       0.417000       1.00800           0
     26855 TIP3     1515     TIP3     H2       HT       0.417000       1.00800           0
     26856 TIP3     1516     TIP3     OH2      OT      -0.834000       15.9994           0
     26857 TIP3     1516     TIP3     H1       HT       0.417000       1.00800           0
     26858 TIP3     1516     TIP3     H2       HT       0.417000       1.00800           0
     26859 TIP3     1517     TIP3     OH2      OT      -0.834000       15.9994           0
     26860 TIP3     1517     TIP3     H1       HT       0.417000       1.00800           0
     26861 TIP3     1517     TIP3     H2       HT       0.417000       1.00800           0
     26862 TIP3     1518     TIP3     OH2      OT      -0.834000       15.9994           0
     26863 TIP3     1518     TIP3     H1       HT       0.417000       1.00800           0
     26864 TIP3     1518     TIP3     H2       HT       0.417000       1.00800           0
     26865 TIP3     1519     TIP3     OH2      OT      -0.834000       15.9994           0
     26866 TIP3     1519     TIP3     H1       HT       0.417000       1.00800           0
     26867 TIP3     1519     TIP3     H2       HT       0.417000       1.00800           0
     26868 TIP3     1520     TIP3     OH2      OT      -0.834000       15.9994           0
     26869 TIP3     1520     TIP3     H1       HT       0.417000       1.00800           0
     26870 TIP3     1520     TIP3     H2       HT       0.417000       1.00800           0
     26871 TIP3     1521     TIP3     OH2      OT      -0.834000       15.9994           0
     26872 TIP3     1521     TIP3     H1       HT       0.417000       1.00800           0
     26873 TIP3     1521     TIP3     H2       HT       0.417000       1.00800           0
     26874 TIP3     1522     TIP3     OH2      OT      -0.834000       15.9994           0
     26875 TIP3     1522     TIP3     H1       HT       0.417000       1.00800           0
     26876 TIP3     1522     TIP3     H2       HT       0.417000       1.00800           0
     26877 TIP3     1523     TIP3     OH2      OT      -0.834000       15.9994           0
     26878 TIP3     1523     TIP3     H1       HT       0.417000       1.00800           0
     26879 TIP3     1523     TIP3     H2       HT       0.417000       1.00800           0
     26880 TIP3     1524     TIP3     OH2      OT      -0.834000       15.9994           0
     26881 TIP3     1524     TIP3     H1       HT       0.417000       1.00800           0
     26882 TIP3     1524     TIP3     H2       HT       0.417000       1.00800           0
     26883 TIP3     1525     TIP3     OH2      OT      -0.834000       15.9994           0
     26884 TIP3     1525     TIP3     H1       HT       0.417000       1.00800           0
     26885 TIP3     1525     TIP3     H2       HT       0.417000       1.00800           0
     26886 TIP3     1526     TIP3     OH2      OT      -0.834000       15.9994           0
     26887 TIP3     1526     TIP3     H1       HT       0.417000       1.00800           0
     26888 TIP3     1526     TIP3     H2       HT       0.417000       1.00800           0
     26889 TIP3     1527     TIP3     OH2      OT      -0.834000       15.9994           0
     26890 TIP3     1527     TIP3     H1       HT       0.417000       1.00800           0
     26891 TIP3     1527     TIP3     H2       HT       0.417000       1.00800           0
     26892 TIP3     1528     TIP3     OH2      OT      -0.834000       15.9994           0
     26893 TIP3     1528     TIP3     H1       HT       0.417000       1.00800           0
     26894 TIP3     1528     TIP3     H2       HT       0.417000       1.00800           0
     26895 TIP3     1529     TIP3     OH2      OT      -0.834000       15.9994           0
     26896 TIP3     1529     TIP3     H1       HT       0.417000       1.00800           0
     26897 TIP3     1529     TIP3     H2       HT       0.417000       1.00800           0
     26898 TIP3     1530     TIP3     OH2      OT      -0.834000       15.9994           0
     26899 TIP3     1530     TIP3     H1       HT       0.417000       1.00800           0
     26900 TIP3     1530     TIP3     H2       HT       0.417000       1.00800           0
     26901 TIP3     1531     TIP3     OH2      OT      -0.834000       15.9994           0
     26902 TIP3     1531     TIP3     H1       HT       0.417000       1.00800           0
     26903 TIP3     1531     TIP3     H2       HT       0.417000       1.00800           0
     26904 TIP3     1532     TIP3     OH2      OT      -0.834000       15.9994           0
     26905 TIP3     1532     TIP3     H1       HT       0.417000       1.00800           0
     26906 TIP3     1532     TIP3     H2       HT       0.417000       1.00800           0
     26907 TIP3     1533     TIP3     OH2      OT      -0.834000       15.9994           0
     26908 TIP3     1533     TIP3     H1       HT       0.417000       1.00800           0
     26909 TIP3     1533     TIP3     H2       HT       0.417000       1.00800           0
     26910 TIP3     1534     TIP3     OH2      OT      -0.834000       15.9994           0
     26911 TIP3     1534     TIP3     H1       HT       0.417000       1.00800           0
     26912 TIP3     1534     TIP3     H2       HT       0.417000       1.00800           0
     26913 TIP3     1535     TIP3     OH2      OT      -0.834000       15.9994           0
     26914 TIP3     1535     TIP3     H1       HT       0.417000       1.00800           0
     26915 TIP3     1535     TIP3     H2       HT       0.417000       1.00800           0
     26916 TIP3     1536     TIP3     OH2      OT      -0.834000       15.9994           0
     26917 TIP3     1536     TIP3     H1       HT       0.417000       1.00800           0
     26918 TIP3     1536     TIP3     H2       HT       0.417000       1.00800           0
     26919 TIP3     1537     TIP3     OH2      OT      -0.834000       15.9994           0
     26920 TIP3     1537     TIP3     H1       HT       0.417000       1.00800           0
     26921 TIP3     1537     TIP3     H2       HT       0.417000       1.00800           0
     26922 TIP3     1538     TIP3     OH2      OT      -0.834000       15.9994           0
     26923 TIP3     1538     TIP3     H1       HT       0.417000       1.00800           0
     26924 TIP3     1538     TIP3     H2       HT       0.417000       1.00800           0
     26925 TIP3     1539     TIP3     OH2      OT      -0.834000       15.9994           0
     26926 TIP3     1539     TIP3     H1       HT       0.417000       1.00800           0
     26927 TIP3     1539     TIP3     H2       HT       0.417000       1.00800           0
     26928 TIP3     1540     TIP3     OH2      OT      -0.834000       15.9994           0
     26929 TIP3     1540     TIP3     H1       HT       0.417000       1.00800           0
     26930 TIP3     1540     TIP3     H2       HT       0.417000       1.00800           0
     26931 TIP3     1541     TIP3     OH2      OT      -0.834000       15.9994           0
     26932 TIP3     1541     TIP3     H1       HT       0.417000       1.00800           0
     26933 TIP3     1541     TIP3     H2       HT       0.417000       1.00800           0
     26934 TIP3     1542     TIP3     OH2      OT      -0.834000       15.9994           0
     26935 TIP3     1542     TIP3     H1       HT       0.417000       1.00800           0
     26936 TIP3     1542     TIP3     H2       HT       0.417000       1.00800           0
     26937 TIP3     1543     TIP3     OH2      OT      -0.834000       15.9994           0
     26938 TIP3     1543     TIP3     H1       HT       0.417000       1.00800           0
     26939 TIP3     1543     TIP3     H2       HT       0.417000       1.00800           0
     26940 TIP3     1544     TIP3     OH2      OT      -0.834000       15.9994           0
     26941 TIP3     1544     TIP3     H1       HT       0.417000       1.00800           0
     26942 TIP3     1544     TIP3     H2       HT       0.417000       1.00800           0
     26943 TIP3     1545     TIP3     OH2      OT      -0.834000       15.9994           0
     26944 TIP3     1545     TIP3     H1       HT       0.417000       1.00800           0
     26945 TIP3     1545     TIP3     H2       HT       0.417000       1.00800           0
     26946 TIP3     1546     TIP3     OH2      OT      -0.834000       15.9994           0
     26947 TIP3     1546     TIP3     H1       HT       0.417000       1.00800           0
     26948 TIP3     1546     TIP3     H2       HT       0.417000       1.00800           0
     26949 TIP3     1547     TIP3     OH2      OT      -0.834000       15.9994           0
     26950 TIP3     1547     TIP3     H1       HT       0.417000       1.00800           0
     26951 TIP3     1547     TIP3     H2       HT       0.417000       1.00800           0
     26952 TIP3     1548     TIP3     OH2      OT      -0.834000       15.9994           0
     26953 TIP3     1548     TIP3     H1       HT       0.417000       1.00800           0
     26954 TIP3     1548     TIP3     H2       HT       0.417000       1.00800           0
     26955 TIP3     1549     TIP3     OH2      OT      -0.834000       15.9994           0
     26956 TIP3     1549     TIP3     H1       HT       0.417000       1.00800           0
     26957 TIP3     1549     TIP3     H2       HT       0.417000       1.00800           0
     26958 TIP3     1550     TIP3     OH2      OT      -0.834000       15.9994           0
     26959 TIP3     1550     TIP3     H1       HT       0.417000       1.00800           0
     26960 TIP3     1550     TIP3     H2       HT       0.417000       1.00800           0
     26961 TIP3     1551     TIP3     OH2      OT      -0.834000       15.9994           0
     26962 TIP3     1551     TIP3     H1       HT       0.417000       1.00800           0
     26963 TIP3     1551     TIP3     H2       HT       0.417000       1.00800           0
     26964 TIP3     1552     TIP3     OH2      OT      -0.834000       15.9994           0
     26965 TIP3     1552     TIP3     H1       HT       0.417000       1.00800           0
     26966 TIP3     1552     TIP3     H2       HT       0.417000       1.00800           0
     26967 TIP3     1553     TIP3     OH2      OT      -0.834000       15.9994           0
     26968 TIP3     1553     TIP3     H1       HT       0.417000       1.00800           0
     26969 TIP3     1553     TIP3     H2       HT       0.417000       1.00800           0
     26970 TIP3     1554     TIP3     OH2      OT      -0.834000       15.9994           0
     26971 TIP3     1554     TIP3     H1       HT       0.417000       1.00800           0
     26972 TIP3     1554     TIP3     H2       HT       0.417000       1.00800           0
     26973 TIP3     1555     TIP3     OH2      OT      -0.834000       15.9994           0
     26974 TIP3     1555     TIP3     H1       HT       0.417000       1.00800           0
     26975 TIP3     1555     TIP3     H2       HT       0.417000       1.00800           0
     26976 TIP3     1556     TIP3     OH2      OT      -0.834000       15.9994           0
     26977 TIP3     1556     TIP3     H1       HT       0.417000       1.00800           0
     26978 TIP3     1556     TIP3     H2       HT       0.417000       1.00800           0
     26979 TIP3     1557     TIP3     OH2      OT      -0.834000       15.9994           0
     26980 TIP3     1557     TIP3     H1       HT       0.417000       1.00800           0
     26981 TIP3     1557     TIP3     H2       HT       0.417000       1.00800           0
     26982 TIP3     1558     TIP3     OH2      OT      -0.834000       15.9994           0
     26983 TIP3     1558     TIP3     H1       HT       0.417000       1.00800           0
     26984 TIP3     1558     TIP3     H2       HT       0.417000       1.00800           0
     26985 TIP3     1559     TIP3     OH2      OT      -0.834000       15.9994           0
     26986 TIP3     1559     TIP3     H1       HT       0.417000       1.00800           0
     26987 TIP3     1559     TIP3     H2       HT       0.417000       1.00800           0
     26988 TIP3     1560     TIP3     OH2      OT      -0.834000       15.9994           0
     26989 TIP3     1560     TIP3     H1       HT       0.417000       1.00800           0
     26990 TIP3     1560     TIP3     H2       HT       0.417000       1.00800           0
     26991 TIP3     1561     TIP3     OH2      OT      -0.834000       15.9994           0
     26992 TIP3     1561     TIP3     H1       HT       0.417000       1.00800           0
     26993 TIP3     1561     TIP3     H2       HT       0.417000       1.00800           0
     26994 TIP3     1562     TIP3     OH2      OT      -0.834000       15.9994           0
     26995 TIP3     1562     TIP3     H1       HT       0.417000       1.00800           0
     26996 TIP3     1562     TIP3     H2       HT       0.417000       1.00800           0
     26997 TIP3     1563     TIP3     OH2      OT      -0.834000       15.9994           0
     26998 TIP3     1563     TIP3     H1       HT       0.417000       1.00800           0
     26999 TIP3     1563     TIP3     H2       HT       0.417000       1.00800           0
     27000 TIP3     1564     TIP3     OH2      OT      -0.834000       15.9994           0
     27001 TIP3     1564     TIP3     H1       HT       0.417000       1.00800           0
     27002 TIP3     1564     TIP3     H2       HT       0.417000       1.00800           0
     27003 TIP3     1565     TIP3     OH2      OT      -0.834000       15.9994           0
     27004 TIP3     1565     TIP3     H1       HT       0.417000       1.00800           0
     27005 TIP3     1565     TIP3     H2       HT       0.417000       1.00800           0
     27006 TIP3     1566     TIP3     OH2      OT      -0.834000       15.9994           0
     27007 TIP3     1566     TIP3     H1       HT       0.417000       1.00800           0
     27008 TIP3     1566     TIP3     H2       HT       0.417000       1.00800           0
     27009 TIP3     1567     TIP3     OH2      OT      -0.834000       15.9994           0
     27010 TIP3     1567     TIP3     H1       HT       0.417000       1.00800           0
     27011 TIP3     1567     TIP3     H2       HT       0.417000       1.00800           0
     27012 TIP3     1568     TIP3     OH2      OT      -0.834000       15.9994           0
     27013 TIP3     1568     TIP3     H1       HT       0.417000       1.00800           0
     27014 TIP3     1568     TIP3     H2       HT       0.417000       1.00800           0
     27015 TIP3     1569     TIP3     OH2      OT      -0.834000       15.9994           0
     27016 TIP3     1569     TIP3     H1       HT       0.417000       1.00800           0
     27017 TIP3     1569     TIP3     H2       HT       0.417000       1.00800           0
     27018 TIP3     1570     TIP3     OH2      OT      -0.834000       15.9994           0
     27019 TIP3     1570     TIP3     H1       HT       0.417000       1.00800           0
     27020 TIP3     1570     TIP3     H2       HT       0.417000       1.00800           0
     27021 TIP3     1571     TIP3     OH2      OT      -0.834000       15.9994           0
     27022 TIP3     1571     TIP3     H1       HT       0.417000       1.00800           0
     27023 TIP3     1571     TIP3     H2       HT       0.417000       1.00800           0
     27024 TIP3     1572     TIP3     OH2      OT      -0.834000       15.9994           0
     27025 TIP3     1572     TIP3     H1       HT       0.417000       1.00800           0
     27026 TIP3     1572     TIP3     H2       HT       0.417000       1.00800           0
     27027 TIP3     1573     TIP3     OH2      OT      -0.834000       15.9994           0
     27028 TIP3     1573     TIP3     H1       HT       0.417000       1.00800           0
     27029 TIP3     1573     TIP3     H2       HT       0.417000       1.00800           0
     27030 TIP3     1574     TIP3     OH2      OT      -0.834000       15.9994           0
     27031 TIP3     1574     TIP3     H1       HT       0.417000       1.00800           0
     27032 TIP3     1574     TIP3     H2       HT       0.417000       1.00800           0
     27033 TIP3     1575     TIP3     OH2      OT      -0.834000       15.9994           0
     27034 TIP3     1575     TIP3     H1       HT       0.417000       1.00800           0
     27035 TIP3     1575     TIP3     H2       HT       0.417000       1.00800           0
     27036 TIP3     1576     TIP3     OH2      OT      -0.834000       15.9994           0
     27037 TIP3     1576     TIP3     H1       HT       0.417000       1.00800           0
     27038 TIP3     1576     TIP3     H2       HT       0.417000       1.00800           0
     27039 TIP3     1577     TIP3     OH2      OT      -0.834000       15.9994           0
     27040 TIP3     1577     TIP3     H1       HT       0.417000       1.00800           0
     27041 TIP3     1577     TIP3     H2       HT       0.417000       1.00800           0
     27042 TIP3     1578     TIP3     OH2      OT      -0.834000       15.9994           0
     27043 TIP3     1578     TIP3     H1       HT       0.417000       1.00800           0
     27044 TIP3     1578     TIP3     H2       HT       0.417000       1.00800           0
     27045 TIP3     1579     TIP3     OH2      OT      -0.834000       15.9994           0
     27046 TIP3     1579     TIP3     H1       HT       0.417000       1.00800           0
     27047 TIP3     1579     TIP3     H2       HT       0.417000       1.00800           0
     27048 TIP3     1580     TIP3     OH2      OT      -0.834000       15.9994           0
     27049 TIP3     1580     TIP3     H1       HT       0.417000       1.00800           0
     27050 TIP3     1580     TIP3     H2       HT       0.417000       1.00800           0
     27051 TIP3     1581     TIP3     OH2      OT      -0.834000       15.9994           0
     27052 TIP3     1581     TIP3     H1       HT       0.417000       1.00800           0
     27053 TIP3     1581     TIP3     H2       HT       0.417000       1.00800           0
     27054 TIP3     1582     TIP3     OH2      OT      -0.834000       15.9994           0
     27055 TIP3     1582     TIP3     H1       HT       0.417000       1.00800           0
     27056 TIP3     1582     TIP3     H2       HT       0.417000       1.00800           0
     27057 TIP3     1583     TIP3     OH2      OT      -0.834000       15.9994           0
     27058 TIP3     1583     TIP3     H1       HT       0.417000       1.00800           0
     27059 TIP3     1583     TIP3     H2       HT       0.417000       1.00800           0
     27060 TIP3     1584     TIP3     OH2      OT      -0.834000       15.9994           0
     27061 TIP3     1584     TIP3     H1       HT       0.417000       1.00800           0
     27062 TIP3     1584     TIP3     H2       HT       0.417000       1.00800           0
     27063 TIP3     1585     TIP3     OH2      OT      -0.834000       15.9994           0
     27064 TIP3     1585     TIP3     H1       HT       0.417000       1.00800           0
     27065 TIP3     1585     TIP3     H2       HT       0.417000       1.00800           0
     27066 TIP3     1586     TIP3     OH2      OT      -0.834000       15.9994           0
     27067 TIP3     1586     TIP3     H1       HT       0.417000       1.00800           0
     27068 TIP3     1586     TIP3     H2       HT       0.417000       1.00800           0
     27069 TIP3     1587     TIP3     OH2      OT      -0.834000       15.9994           0
     27070 TIP3     1587     TIP3     H1       HT       0.417000       1.00800           0
     27071 TIP3     1587     TIP3     H2       HT       0.417000       1.00800           0
     27072 TIP3     1588     TIP3     OH2      OT      -0.834000       15.9994           0
     27073 TIP3     1588     TIP3     H1       HT       0.417000       1.00800           0
     27074 TIP3     1588     TIP3     H2       HT       0.417000       1.00800           0
     27075 TIP3     1589     TIP3     OH2      OT      -0.834000       15.9994           0
     27076 TIP3     1589     TIP3     H1       HT       0.417000       1.00800           0
     27077 TIP3     1589     TIP3     H2       HT       0.417000       1.00800           0
     27078 TIP3     1590     TIP3     OH2      OT      -0.834000       15.9994           0
     27079 TIP3     1590     TIP3     H1       HT       0.417000       1.00800           0
     27080 TIP3     1590     TIP3     H2       HT       0.417000       1.00800           0
     27081 TIP3     1591     TIP3     OH2      OT      -0.834000       15.9994           0
     27082 TIP3     1591     TIP3     H1       HT       0.417000       1.00800           0
     27083 TIP3     1591     TIP3     H2       HT       0.417000       1.00800           0
     27084 TIP3     1592     TIP3     OH2      OT      -0.834000       15.9994           0
     27085 TIP3     1592     TIP3     H1       HT       0.417000       1.00800           0
     27086 TIP3     1592     TIP3     H2       HT       0.417000       1.00800           0
     27087 TIP3     1593     TIP3     OH2      OT      -0.834000       15.9994           0
     27088 TIP3     1593     TIP3     H1       HT       0.417000       1.00800           0
     27089 TIP3     1593     TIP3     H2       HT       0.417000       1.00800           0
     27090 TIP3     1594     TIP3     OH2      OT      -0.834000       15.9994           0
     27091 TIP3     1594     TIP3     H1       HT       0.417000       1.00800           0
     27092 TIP3     1594     TIP3     H2       HT       0.417000       1.00800           0
     27093 TIP3     1595     TIP3     OH2      OT      -0.834000       15.9994           0
     27094 TIP3     1595     TIP3     H1       HT       0.417000       1.00800           0
     27095 TIP3     1595     TIP3     H2       HT       0.417000       1.00800           0
     27096 TIP3     1596     TIP3     OH2      OT      -0.834000       15.9994           0
     27097 TIP3     1596     TIP3     H1       HT       0.417000       1.00800           0
     27098 TIP3     1596     TIP3     H2       HT       0.417000       1.00800           0
     27099 TIP3     1597     TIP3     OH2      OT      -0.834000       15.9994           0
     27100 TIP3     1597     TIP3     H1       HT       0.417000       1.00800           0
     27101 TIP3     1597     TIP3     H2       HT       0.417000       1.00800           0
     27102 TIP3     1598     TIP3     OH2      OT      -0.834000       15.9994           0
     27103 TIP3     1598     TIP3     H1       HT       0.417000       1.00800           0
     27104 TIP3     1598     TIP3     H2       HT       0.417000       1.00800           0
     27105 TIP3     1599     TIP3     OH2      OT      -0.834000       15.9994           0
     27106 TIP3     1599     TIP3     H1       HT       0.417000       1.00800           0
     27107 TIP3     1599     TIP3     H2       HT       0.417000       1.00800           0
     27108 TIP3     1600     TIP3     OH2      OT      -0.834000       15.9994           0
     27109 TIP3     1600     TIP3     H1       HT       0.417000       1.00800           0
     27110 TIP3     1600     TIP3     H2       HT       0.417000       1.00800           0
     27111 TIP3     1601     TIP3     OH2      OT      -0.834000       15.9994           0
     27112 TIP3     1601     TIP3     H1       HT       0.417000       1.00800           0
     27113 TIP3     1601     TIP3     H2       HT       0.417000       1.00800           0
     27114 TIP3     1602     TIP3     OH2      OT      -0.834000       15.9994           0
     27115 TIP3     1602     TIP3     H1       HT       0.417000       1.00800           0
     27116 TIP3     1602     TIP3     H2       HT       0.417000       1.00800           0
     27117 TIP3     1603     TIP3     OH2      OT      -0.834000       15.9994           0
     27118 TIP3     1603     TIP3     H1       HT       0.417000       1.00800           0
     27119 TIP3     1603     TIP3     H2       HT       0.417000       1.00800           0
     27120 TIP3     1604     TIP3     OH2      OT      -0.834000       15.9994           0
     27121 TIP3     1604     TIP3     H1       HT       0.417000       1.00800           0
     27122 TIP3     1604     TIP3     H2       HT       0.417000       1.00800           0
     27123 TIP3     1605     TIP3     OH2      OT      -0.834000       15.9994           0
     27124 TIP3     1605     TIP3     H1       HT       0.417000       1.00800           0
     27125 TIP3     1605     TIP3     H2       HT       0.417000       1.00800           0
     27126 TIP3     1606     TIP3     OH2      OT      -0.834000       15.9994           0
     27127 TIP3     1606     TIP3     H1       HT       0.417000       1.00800           0
     27128 TIP3     1606     TIP3     H2       HT       0.417000       1.00800           0
     27129 TIP3     1607     TIP3     OH2      OT      -0.834000       15.9994           0
     27130 TIP3     1607     TIP3     H1       HT       0.417000       1.00800           0
     27131 TIP3     1607     TIP3     H2       HT       0.417000       1.00800           0
     27132 TIP3     1608     TIP3     OH2      OT      -0.834000       15.9994           0
     27133 TIP3     1608     TIP3     H1       HT       0.417000       1.00800           0
     27134 TIP3     1608     TIP3     H2       HT       0.417000       1.00800           0
     27135 TIP3     1609     TIP3     OH2      OT      -0.834000       15.9994           0
     27136 TIP3     1609     TIP3     H1       HT       0.417000       1.00800           0
     27137 TIP3     1609     TIP3     H2       HT       0.417000       1.00800           0
     27138 TIP3     1610     TIP3     OH2      OT      -0.834000       15.9994           0
     27139 TIP3     1610     TIP3     H1       HT       0.417000       1.00800           0
     27140 TIP3     1610     TIP3     H2       HT       0.417000       1.00800           0
     27141 TIP3     1611     TIP3     OH2      OT      -0.834000       15.9994           0
     27142 TIP3     1611     TIP3     H1       HT       0.417000       1.00800           0
     27143 TIP3     1611     TIP3     H2       HT       0.417000       1.00800           0
     27144 TIP3     1612     TIP3     OH2      OT      -0.834000       15.9994           0
     27145 TIP3     1612     TIP3     H1       HT       0.417000       1.00800           0
     27146 TIP3     1612     TIP3     H2       HT       0.417000       1.00800           0
     27147 TIP3     1613     TIP3     OH2      OT      -0.834000       15.9994           0
     27148 TIP3     1613     TIP3     H1       HT       0.417000       1.00800           0
     27149 TIP3     1613     TIP3     H2       HT       0.417000       1.00800           0
     27150 TIP3     1614     TIP3     OH2      OT      -0.834000       15.9994           0
     27151 TIP3     1614     TIP3     H1       HT       0.417000       1.00800           0
     27152 TIP3     1614     TIP3     H2       HT       0.417000       1.00800           0
     27153 TIP3     1615     TIP3     OH2      OT      -0.834000       15.9994           0
     27154 TIP3     1615     TIP3     H1       HT       0.417000       1.00800           0
     27155 TIP3     1615     TIP3     H2       HT       0.417000       1.00800           0
     27156 TIP3     1616     TIP3     OH2      OT      -0.834000       15.9994           0
     27157 TIP3     1616     TIP3     H1       HT       0.417000       1.00800           0
     27158 TIP3     1616     TIP3     H2       HT       0.417000       1.00800           0
     27159 TIP3     1617     TIP3     OH2      OT      -0.834000       15.9994           0
     27160 TIP3     1617     TIP3     H1       HT       0.417000       1.00800           0
     27161 TIP3     1617     TIP3     H2       HT       0.417000       1.00800           0
     27162 TIP3     1618     TIP3     OH2      OT      -0.834000       15.9994           0
     27163 TIP3     1618     TIP3     H1       HT       0.417000       1.00800           0
     27164 TIP3     1618     TIP3     H2       HT       0.417000       1.00800           0
     27165 TIP3     1619     TIP3     OH2      OT      -0.834000       15.9994           0
     27166 TIP3     1619     TIP3     H1       HT       0.417000       1.00800           0
     27167 TIP3     1619     TIP3     H2       HT       0.417000       1.00800           0
     27168 TIP3     1620     TIP3     OH2      OT      -0.834000       15.9994           0
     27169 TIP3     1620     TIP3     H1       HT       0.417000       1.00800           0
     27170 TIP3     1620     TIP3     H2       HT       0.417000       1.00800           0
     27171 TIP3     1621     TIP3     OH2      OT      -0.834000       15.9994           0
     27172 TIP3     1621     TIP3     H1       HT       0.417000       1.00800           0
     27173 TIP3     1621     TIP3     H2       HT       0.417000       1.00800           0
     27174 TIP3     1622     TIP3     OH2      OT      -0.834000       15.9994           0
     27175 TIP3     1622     TIP3     H1       HT       0.417000       1.00800           0
     27176 TIP3     1622     TIP3     H2       HT       0.417000       1.00800           0
     27177 TIP3     1623     TIP3     OH2      OT      -0.834000       15.9994           0
     27178 TIP3     1623     TIP3     H1       HT       0.417000       1.00800           0
     27179 TIP3     1623     TIP3     H2       HT       0.417000       1.00800           0
     27180 TIP3     1624     TIP3     OH2      OT      -0.834000       15.9994           0
     27181 TIP3     1624     TIP3     H1       HT       0.417000       1.00800           0
     27182 TIP3     1624     TIP3     H2       HT       0.417000       1.00800           0
     27183 TIP3     1625     TIP3     OH2      OT      -0.834000       15.9994           0
     27184 TIP3     1625     TIP3     H1       HT       0.417000       1.00800           0
     27185 TIP3     1625     TIP3     H2       HT       0.417000       1.00800           0
     27186 TIP3     1626     TIP3     OH2      OT      -0.834000       15.9994           0
     27187 TIP3     1626     TIP3     H1       HT       0.417000       1.00800           0
     27188 TIP3     1626     TIP3     H2       HT       0.417000       1.00800           0
     27189 TIP3     1627     TIP3     OH2      OT      -0.834000       15.9994           0
     27190 TIP3     1627     TIP3     H1       HT       0.417000       1.00800           0
     27191 TIP3     1627     TIP3     H2       HT       0.417000       1.00800           0
     27192 TIP3     1628     TIP3     OH2      OT      -0.834000       15.9994           0
     27193 TIP3     1628     TIP3     H1       HT       0.417000       1.00800           0
     27194 TIP3     1628     TIP3     H2       HT       0.417000       1.00800           0
     27195 TIP3     1629     TIP3     OH2      OT      -0.834000       15.9994           0
     27196 TIP3     1629     TIP3     H1       HT       0.417000       1.00800           0
     27197 TIP3     1629     TIP3     H2       HT       0.417000       1.00800           0
     27198 TIP3     1630     TIP3     OH2      OT      -0.834000       15.9994           0
     27199 TIP3     1630     TIP3     H1       HT       0.417000       1.00800           0
     27200 TIP3     1630     TIP3     H2       HT       0.417000       1.00800           0
     27201 TIP3     1631     TIP3     OH2      OT      -0.834000       15.9994           0
     27202 TIP3     1631     TIP3     H1       HT       0.417000       1.00800           0
     27203 TIP3     1631     TIP3     H2       HT       0.417000       1.00800           0
     27204 TIP3     1632     TIP3     OH2      OT      -0.834000       15.9994           0
     27205 TIP3     1632     TIP3     H1       HT       0.417000       1.00800           0
     27206 TIP3     1632     TIP3     H2       HT       0.417000       1.00800           0
     27207 TIP3     1633     TIP3     OH2      OT      -0.834000       15.9994           0
     27208 TIP3     1633     TIP3     H1       HT       0.417000       1.00800           0
     27209 TIP3     1633     TIP3     H2       HT       0.417000       1.00800           0
     27210 TIP3     1634     TIP3     OH2      OT      -0.834000       15.9994           0
     27211 TIP3     1634     TIP3     H1       HT       0.417000       1.00800           0
     27212 TIP3     1634     TIP3     H2       HT       0.417000       1.00800           0
     27213 TIP3     1635     TIP3     OH2      OT      -0.834000       15.9994           0
     27214 TIP3     1635     TIP3     H1       HT       0.417000       1.00800           0
     27215 TIP3     1635     TIP3     H2       HT       0.417000       1.00800           0
     27216 TIP3     1636     TIP3     OH2      OT      -0.834000       15.9994           0
     27217 TIP3     1636     TIP3     H1       HT       0.417000       1.00800           0
     27218 TIP3     1636     TIP3     H2       HT       0.417000       1.00800           0
     27219 TIP3     1637     TIP3     OH2      OT      -0.834000       15.9994           0
     27220 TIP3     1637     TIP3     H1       HT       0.417000       1.00800           0
     27221 TIP3     1637     TIP3     H2       HT       0.417000       1.00800           0
     27222 TIP3     1638     TIP3     OH2      OT      -0.834000       15.9994           0
     27223 TIP3     1638     TIP3     H1       HT       0.417000       1.00800           0
     27224 TIP3     1638     TIP3     H2       HT       0.417000       1.00800           0
     27225 TIP3     1639     TIP3     OH2      OT      -0.834000       15.9994           0
     27226 TIP3     1639     TIP3     H1       HT       0.417000       1.00800           0
     27227 TIP3     1639     TIP3     H2       HT       0.417000       1.00800           0
     27228 TIP3     1640     TIP3     OH2      OT      -0.834000       15.9994           0
     27229 TIP3     1640     TIP3     H1       HT       0.417000       1.00800           0
     27230 TIP3     1640     TIP3     H2       HT       0.417000       1.00800           0
     27231 TIP3     1641     TIP3     OH2      OT      -0.834000       15.9994           0
     27232 TIP3     1641     TIP3     H1       HT       0.417000       1.00800           0
     27233 TIP3     1641     TIP3     H2       HT       0.417000       1.00800           0
     27234 TIP3     1642     TIP3     OH2      OT      -0.834000       15.9994           0
     27235 TIP3     1642     TIP3     H1       HT       0.417000       1.00800           0
     27236 TIP3     1642     TIP3     H2       HT       0.417000       1.00800           0
     27237 TIP3     1643     TIP3     OH2      OT      -0.834000       15.9994           0
     27238 TIP3     1643     TIP3     H1       HT       0.417000       1.00800           0
     27239 TIP3     1643     TIP3     H2       HT       0.417000       1.00800           0
     27240 TIP3     1644     TIP3     OH2      OT      -0.834000       15.9994           0
     27241 TIP3     1644     TIP3     H1       HT       0.417000       1.00800           0
     27242 TIP3     1644     TIP3     H2       HT       0.417000       1.00800           0
     27243 TIP3     1645     TIP3     OH2      OT      -0.834000       15.9994           0
     27244 TIP3     1645     TIP3     H1       HT       0.417000       1.00800           0
     27245 TIP3     1645     TIP3     H2       HT       0.417000       1.00800           0
     27246 TIP3     1646     TIP3     OH2      OT      -0.834000       15.9994           0
     27247 TIP3     1646     TIP3     H1       HT       0.417000       1.00800           0
     27248 TIP3     1646     TIP3     H2       HT       0.417000       1.00800           0
     27249 TIP3     1647     TIP3     OH2      OT      -0.834000       15.9994           0
     27250 TIP3     1647     TIP3     H1       HT       0.417000       1.00800           0
     27251 TIP3     1647     TIP3     H2       HT       0.417000       1.00800           0
     27252 TIP3     1648     TIP3     OH2      OT      -0.834000       15.9994           0
     27253 TIP3     1648     TIP3     H1       HT       0.417000       1.00800           0
     27254 TIP3     1648     TIP3     H2       HT       0.417000       1.00800           0
     27255 TIP3     1649     TIP3     OH2      OT      -0.834000       15.9994           0
     27256 TIP3     1649     TIP3     H1       HT       0.417000       1.00800           0
     27257 TIP3     1649     TIP3     H2       HT       0.417000       1.00800           0
     27258 TIP3     1650     TIP3     OH2      OT      -0.834000       15.9994           0
     27259 TIP3     1650     TIP3     H1       HT       0.417000       1.00800           0
     27260 TIP3     1650     TIP3     H2       HT       0.417000       1.00800           0
     27261 TIP3     1651     TIP3     OH2      OT      -0.834000       15.9994           0
     27262 TIP3     1651     TIP3     H1       HT       0.417000       1.00800           0
     27263 TIP3     1651     TIP3     H2       HT       0.417000       1.00800           0
     27264 TIP3     1652     TIP3     OH2      OT      -0.834000       15.9994           0
     27265 TIP3     1652     TIP3     H1       HT       0.417000       1.00800           0
     27266 TIP3     1652     TIP3     H2       HT       0.417000       1.00800           0
     27267 TIP3     1653     TIP3     OH2      OT      -0.834000       15.9994           0
     27268 TIP3     1653     TIP3     H1       HT       0.417000       1.00800           0
     27269 TIP3     1653     TIP3     H2       HT       0.417000       1.00800           0
     27270 TIP3     1654     TIP3     OH2      OT      -0.834000       15.9994           0
     27271 TIP3     1654     TIP3     H1       HT       0.417000       1.00800           0
     27272 TIP3     1654     TIP3     H2       HT       0.417000       1.00800           0
     27273 TIP3     1655     TIP3     OH2      OT      -0.834000       15.9994           0
     27274 TIP3     1655     TIP3     H1       HT       0.417000       1.00800           0
     27275 TIP3     1655     TIP3     H2       HT       0.417000       1.00800           0
     27276 TIP3     1656     TIP3     OH2      OT      -0.834000       15.9994           0
     27277 TIP3     1656     TIP3     H1       HT       0.417000       1.00800           0
     27278 TIP3     1656     TIP3     H2       HT       0.417000       1.00800           0
     27279 TIP3     1657     TIP3     OH2      OT      -0.834000       15.9994           0
     27280 TIP3     1657     TIP3     H1       HT       0.417000       1.00800           0
     27281 TIP3     1657     TIP3     H2       HT       0.417000       1.00800           0
     27282 TIP3     1658     TIP3     OH2      OT      -0.834000       15.9994           0
     27283 TIP3     1658     TIP3     H1       HT       0.417000       1.00800           0
     27284 TIP3     1658     TIP3     H2       HT       0.417000       1.00800           0
     27285 TIP3     1659     TIP3     OH2      OT      -0.834000       15.9994           0
     27286 TIP3     1659     TIP3     H1       HT       0.417000       1.00800           0
     27287 TIP3     1659     TIP3     H2       HT       0.417000       1.00800           0
     27288 TIP3     1660     TIP3     OH2      OT      -0.834000       15.9994           0
     27289 TIP3     1660     TIP3     H1       HT       0.417000       1.00800           0
     27290 TIP3     1660     TIP3     H2       HT       0.417000       1.00800           0
     27291 TIP3     1661     TIP3     OH2      OT      -0.834000       15.9994           0
     27292 TIP3     1661     TIP3     H1       HT       0.417000       1.00800           0
     27293 TIP3     1661     TIP3     H2       HT       0.417000       1.00800           0
     27294 TIP3     1662     TIP3     OH2      OT      -0.834000       15.9994           0
     27295 TIP3     1662     TIP3     H1       HT       0.417000       1.00800           0
     27296 TIP3     1662     TIP3     H2       HT       0.417000       1.00800           0
     27297 TIP3     1663     TIP3     OH2      OT      -0.834000       15.9994           0
     27298 TIP3     1663     TIP3     H1       HT       0.417000       1.00800           0
     27299 TIP3     1663     TIP3     H2       HT       0.417000       1.00800           0
     27300 TIP3     1664     TIP3     OH2      OT      -0.834000       15.9994           0
     27301 TIP3     1664     TIP3     H1       HT       0.417000       1.00800           0
     27302 TIP3     1664     TIP3     H2       HT       0.417000       1.00800           0
     27303 TIP3     1665     TIP3     OH2      OT      -0.834000       15.9994           0
     27304 TIP3     1665     TIP3     H1       HT       0.417000       1.00800           0
     27305 TIP3     1665     TIP3     H2       HT       0.417000       1.00800           0
     27306 TIP3     1666     TIP3     OH2      OT      -0.834000       15.9994           0
     27307 TIP3     1666     TIP3     H1       HT       0.417000       1.00800           0
     27308 TIP3     1666     TIP3     H2       HT       0.417000       1.00800           0
     27309 TIP3     1667     TIP3     OH2      OT      -0.834000       15.9994           0
     27310 TIP3     1667     TIP3     H1       HT       0.417000       1.00800           0
     27311 TIP3     1667     TIP3     H2       HT       0.417000       1.00800           0
     27312 TIP3     1668     TIP3     OH2      OT      -0.834000       15.9994           0
     27313 TIP3     1668     TIP3     H1       HT       0.417000       1.00800           0
     27314 TIP3     1668     TIP3     H2       HT       0.417000       1.00800           0
     27315 TIP3     1669     TIP3     OH2      OT      -0.834000       15.9994           0
     27316 TIP3     1669     TIP3     H1       HT       0.417000       1.00800           0
     27317 TIP3     1669     TIP3     H2       HT       0.417000       1.00800           0
     27318 TIP3     1670     TIP3     OH2      OT      -0.834000       15.9994           0
     27319 TIP3     1670     TIP3     H1       HT       0.417000       1.00800           0
     27320 TIP3     1670     TIP3     H2       HT       0.417000       1.00800           0
     27321 TIP3     1671     TIP3     OH2      OT      -0.834000       15.9994           0
     27322 TIP3     1671     TIP3     H1       HT       0.417000       1.00800           0
     27323 TIP3     1671     TIP3     H2       HT       0.417000       1.00800           0
     27324 TIP3     1672     TIP3     OH2      OT      -0.834000       15.9994           0
     27325 TIP3     1672     TIP3     H1       HT       0.417000       1.00800           0
     27326 TIP3     1672     TIP3     H2       HT       0.417000       1.00800           0
     27327 TIP3     1673     TIP3     OH2      OT      -0.834000       15.9994           0
     27328 TIP3     1673     TIP3     H1       HT       0.417000       1.00800           0
     27329 TIP3     1673     TIP3     H2       HT       0.417000       1.00800           0
     27330 TIP3     1674     TIP3     OH2      OT      -0.834000       15.9994           0
     27331 TIP3     1674     TIP3     H1       HT       0.417000       1.00800           0
     27332 TIP3     1674     TIP3     H2       HT       0.417000       1.00800           0
     27333 TIP3     1675     TIP3     OH2      OT      -0.834000       15.9994           0
     27334 TIP3     1675     TIP3     H1       HT       0.417000       1.00800           0
     27335 TIP3     1675     TIP3     H2       HT       0.417000       1.00800           0
     27336 TIP3     1676     TIP3     OH2      OT      -0.834000       15.9994           0
     27337 TIP3     1676     TIP3     H1       HT       0.417000       1.00800           0
     27338 TIP3     1676     TIP3     H2       HT       0.417000       1.00800           0
     27339 TIP3     1677     TIP3     OH2      OT      -0.834000       15.9994           0
     27340 TIP3     1677     TIP3     H1       HT       0.417000       1.00800           0
     27341 TIP3     1677     TIP3     H2       HT       0.417000       1.00800           0
     27342 TIP3     1678     TIP3     OH2      OT      -0.834000       15.9994           0
     27343 TIP3     1678     TIP3     H1       HT       0.417000       1.00800           0
     27344 TIP3     1678     TIP3     H2       HT       0.417000       1.00800           0
     27345 TIP3     1679     TIP3     OH2      OT      -0.834000       15.9994           0
     27346 TIP3     1679     TIP3     H1       HT       0.417000       1.00800           0
     27347 TIP3     1679     TIP3     H2       HT       0.417000       1.00800           0
     27348 TIP3     1680     TIP3     OH2      OT      -0.834000       15.9994           0
     27349 TIP3     1680     TIP3     H1       HT       0.417000       1.00800           0
     27350 TIP3     1680     TIP3     H2       HT       0.417000       1.00800           0
     27351 TIP3     1681     TIP3     OH2      OT      -0.834000       15.9994           0
     27352 TIP3     1681     TIP3     H1       HT       0.417000       1.00800           0
     27353 TIP3     1681     TIP3     H2       HT       0.417000       1.00800           0
     27354 TIP3     1682     TIP3     OH2      OT      -0.834000       15.9994           0
     27355 TIP3     1682     TIP3     H1       HT       0.417000       1.00800           0
     27356 TIP3     1682     TIP3     H2       HT       0.417000       1.00800           0
     27357 TIP3     1683     TIP3     OH2      OT      -0.834000       15.9994           0
     27358 TIP3     1683     TIP3     H1       HT       0.417000       1.00800           0
     27359 TIP3     1683     TIP3     H2       HT       0.417000       1.00800           0
     27360 TIP3     1684     TIP3     OH2      OT      -0.834000       15.9994           0
     27361 TIP3     1684     TIP3     H1       HT       0.417000       1.00800           0
     27362 TIP3     1684     TIP3     H2       HT       0.417000       1.00800           0
     27363 TIP3     1685     TIP3     OH2      OT      -0.834000       15.9994           0
     27364 TIP3     1685     TIP3     H1       HT       0.417000       1.00800           0
     27365 TIP3     1685     TIP3     H2       HT       0.417000       1.00800           0
     27366 TIP3     1686     TIP3     OH2      OT      -0.834000       15.9994           0
     27367 TIP3     1686     TIP3     H1       HT       0.417000       1.00800           0
     27368 TIP3     1686     TIP3     H2       HT       0.417000       1.00800           0
     27369 TIP3     1687     TIP3     OH2      OT      -0.834000       15.9994           0
     27370 TIP3     1687     TIP3     H1       HT       0.417000       1.00800           0
     27371 TIP3     1687     TIP3     H2       HT       0.417000       1.00800           0
     27372 TIP3     1688     TIP3     OH2      OT      -0.834000       15.9994           0
     27373 TIP3     1688     TIP3     H1       HT       0.417000       1.00800           0
     27374 TIP3     1688     TIP3     H2       HT       0.417000       1.00800           0
     27375 TIP3     1689     TIP3     OH2      OT      -0.834000       15.9994           0
     27376 TIP3     1689     TIP3     H1       HT       0.417000       1.00800           0
     27377 TIP3     1689     TIP3     H2       HT       0.417000       1.00800           0
     27378 TIP3     1690     TIP3     OH2      OT      -0.834000       15.9994           0
     27379 TIP3     1690     TIP3     H1       HT       0.417000       1.00800           0
     27380 TIP3     1690     TIP3     H2       HT       0.417000       1.00800           0
     27381 TIP3     1691     TIP3     OH2      OT      -0.834000       15.9994           0
     27382 TIP3     1691     TIP3     H1       HT       0.417000       1.00800           0
     27383 TIP3     1691     TIP3     H2       HT       0.417000       1.00800           0
     27384 TIP3     1692     TIP3     OH2      OT      -0.834000       15.9994           0
     27385 TIP3     1692     TIP3     H1       HT       0.417000       1.00800           0
     27386 TIP3     1692     TIP3     H2       HT       0.417000       1.00800           0
     27387 TIP3     1693     TIP3     OH2      OT      -0.834000       15.9994           0
     27388 TIP3     1693     TIP3     H1       HT       0.417000       1.00800           0
     27389 TIP3     1693     TIP3     H2       HT       0.417000       1.00800           0
     27390 TIP3     1694     TIP3     OH2      OT      -0.834000       15.9994           0
     27391 TIP3     1694     TIP3     H1       HT       0.417000       1.00800           0
     27392 TIP3     1694     TIP3     H2       HT       0.417000       1.00800           0
     27393 TIP3     1695     TIP3     OH2      OT      -0.834000       15.9994           0
     27394 TIP3     1695     TIP3     H1       HT       0.417000       1.00800           0
     27395 TIP3     1695     TIP3     H2       HT       0.417000       1.00800           0
     27396 TIP3     1696     TIP3     OH2      OT      -0.834000       15.9994           0
     27397 TIP3     1696     TIP3     H1       HT       0.417000       1.00800           0
     27398 TIP3     1696     TIP3     H2       HT       0.417000       1.00800           0
     27399 TIP3     1697     TIP3     OH2      OT      -0.834000       15.9994           0
     27400 TIP3     1697     TIP3     H1       HT       0.417000       1.00800           0
     27401 TIP3     1697     TIP3     H2       HT       0.417000       1.00800           0
     27402 TIP3     1698     TIP3     OH2      OT      -0.834000       15.9994           0
     27403 TIP3     1698     TIP3     H1       HT       0.417000       1.00800           0
     27404 TIP3     1698     TIP3     H2       HT       0.417000       1.00800           0
     27405 TIP3     1699     TIP3     OH2      OT      -0.834000       15.9994           0
     27406 TIP3     1699     TIP3     H1       HT       0.417000       1.00800           0
     27407 TIP3     1699     TIP3     H2       HT       0.417000       1.00800           0
     27408 TIP3     1700     TIP3     OH2      OT      -0.834000       15.9994           0
     27409 TIP3     1700     TIP3     H1       HT       0.417000       1.00800           0
     27410 TIP3     1700     TIP3     H2       HT       0.417000       1.00800           0
     27411 TIP3     1701     TIP3     OH2      OT      -0.834000       15.9994           0
     27412 TIP3     1701     TIP3     H1       HT       0.417000       1.00800           0
     27413 TIP3     1701     TIP3     H2       HT       0.417000       1.00800           0
     27414 TIP3     1702     TIP3     OH2      OT      -0.834000       15.9994           0
     27415 TIP3     1702     TIP3     H1       HT       0.417000       1.00800           0
     27416 TIP3     1702     TIP3     H2       HT       0.417000       1.00800           0
     27417 TIP3     1703     TIP3     OH2      OT      -0.834000       15.9994           0
     27418 TIP3     1703     TIP3     H1       HT       0.417000       1.00800           0
     27419 TIP3     1703     TIP3     H2       HT       0.417000       1.00800           0
     27420 TIP3     1704     TIP3     OH2      OT      -0.834000       15.9994           0
     27421 TIP3     1704     TIP3     H1       HT       0.417000       1.00800           0
     27422 TIP3     1704     TIP3     H2       HT       0.417000       1.00800           0
     27423 TIP3     1705     TIP3     OH2      OT      -0.834000       15.9994           0
     27424 TIP3     1705     TIP3     H1       HT       0.417000       1.00800           0
     27425 TIP3     1705     TIP3     H2       HT       0.417000       1.00800           0
     27426 TIP3     1706     TIP3     OH2      OT      -0.834000       15.9994           0
     27427 TIP3     1706     TIP3     H1       HT       0.417000       1.00800           0
     27428 TIP3     1706     TIP3     H2       HT       0.417000       1.00800           0
     27429 TIP3     1707     TIP3     OH2      OT      -0.834000       15.9994           0
     27430 TIP3     1707     TIP3     H1       HT       0.417000       1.00800           0
     27431 TIP3     1707     TIP3     H2       HT       0.417000       1.00800           0
     27432 TIP3     1708     TIP3     OH2      OT      -0.834000       15.9994           0
     27433 TIP3     1708     TIP3     H1       HT       0.417000       1.00800           0
     27434 TIP3     1708     TIP3     H2       HT       0.417000       1.00800           0
     27435 TIP3     1709     TIP3     OH2      OT      -0.834000       15.9994           0
     27436 TIP3     1709     TIP3     H1       HT       0.417000       1.00800           0
     27437 TIP3     1709     TIP3     H2       HT       0.417000       1.00800           0
     27438 TIP3     1710     TIP3     OH2      OT      -0.834000       15.9994           0
     27439 TIP3     1710     TIP3     H1       HT       0.417000       1.00800           0
     27440 TIP3     1710     TIP3     H2       HT       0.417000       1.00800           0
     27441 TIP3     1711     TIP3     OH2      OT      -0.834000       15.9994           0
     27442 TIP3     1711     TIP3     H1       HT       0.417000       1.00800           0
     27443 TIP3     1711     TIP3     H2       HT       0.417000       1.00800           0
     27444 TIP3     1712     TIP3     OH2      OT      -0.834000       15.9994           0
     27445 TIP3     1712     TIP3     H1       HT       0.417000       1.00800           0
     27446 TIP3     1712     TIP3     H2       HT       0.417000       1.00800           0
     27447 TIP3     1713     TIP3     OH2      OT      -0.834000       15.9994           0
     27448 TIP3     1713     TIP3     H1       HT       0.417000       1.00800           0
     27449 TIP3     1713     TIP3     H2       HT       0.417000       1.00800           0
     27450 TIP3     1714     TIP3     OH2      OT      -0.834000       15.9994           0
     27451 TIP3     1714     TIP3     H1       HT       0.417000       1.00800           0
     27452 TIP3     1714     TIP3     H2       HT       0.417000       1.00800           0
     27453 TIP3     1715     TIP3     OH2      OT      -0.834000       15.9994           0
     27454 TIP3     1715     TIP3     H1       HT       0.417000       1.00800           0
     27455 TIP3     1715     TIP3     H2       HT       0.417000       1.00800           0
     27456 TIP3     1716     TIP3     OH2      OT      -0.834000       15.9994           0
     27457 TIP3     1716     TIP3     H1       HT       0.417000       1.00800           0
     27458 TIP3     1716     TIP3     H2       HT       0.417000       1.00800           0
     27459 TIP3     1717     TIP3     OH2      OT      -0.834000       15.9994           0
     27460 TIP3     1717     TIP3     H1       HT       0.417000       1.00800           0
     27461 TIP3     1717     TIP3     H2       HT       0.417000       1.00800           0
     27462 TIP3     1718     TIP3     OH2      OT      -0.834000       15.9994           0
     27463 TIP3     1718     TIP3     H1       HT       0.417000       1.00800           0
     27464 TIP3     1718     TIP3     H2       HT       0.417000       1.00800           0
     27465 TIP3     1719     TIP3     OH2      OT      -0.834000       15.9994           0
     27466 TIP3     1719     TIP3     H1       HT       0.417000       1.00800           0
     27467 TIP3     1719     TIP3     H2       HT       0.417000       1.00800           0
     27468 TIP3     1720     TIP3     OH2      OT      -0.834000       15.9994           0
     27469 TIP3     1720     TIP3     H1       HT       0.417000       1.00800           0
     27470 TIP3     1720     TIP3     H2       HT       0.417000       1.00800           0
     27471 TIP3     1721     TIP3     OH2      OT      -0.834000       15.9994           0
     27472 TIP3     1721     TIP3     H1       HT       0.417000       1.00800           0
     27473 TIP3     1721     TIP3     H2       HT       0.417000       1.00800           0
     27474 TIP3     1722     TIP3     OH2      OT      -0.834000       15.9994           0
     27475 TIP3     1722     TIP3     H1       HT       0.417000       1.00800           0
     27476 TIP3     1722     TIP3     H2       HT       0.417000       1.00800           0
     27477 TIP3     1723     TIP3     OH2      OT      -0.834000       15.9994           0
     27478 TIP3     1723     TIP3     H1       HT       0.417000       1.00800           0
     27479 TIP3     1723     TIP3     H2       HT       0.417000       1.00800           0
     27480 TIP3     1724     TIP3     OH2      OT      -0.834000       15.9994           0
     27481 TIP3     1724     TIP3     H1       HT       0.417000       1.00800           0
     27482 TIP3     1724     TIP3     H2       HT       0.417000       1.00800           0
     27483 TIP3     1725     TIP3     OH2      OT      -0.834000       15.9994           0
     27484 TIP3     1725     TIP3     H1       HT       0.417000       1.00800           0
     27485 TIP3     1725     TIP3     H2       HT       0.417000       1.00800           0
     27486 TIP3     1726     TIP3     OH2      OT      -0.834000       15.9994           0
     27487 TIP3     1726     TIP3     H1       HT       0.417000       1.00800           0
     27488 TIP3     1726     TIP3     H2       HT       0.417000       1.00800           0
     27489 TIP3     1727     TIP3     OH2      OT      -0.834000       15.9994           0
     27490 TIP3     1727     TIP3     H1       HT       0.417000       1.00800           0
     27491 TIP3     1727     TIP3     H2       HT       0.417000       1.00800           0
     27492 TIP3     1728     TIP3     OH2      OT      -0.834000       15.9994           0
     27493 TIP3     1728     TIP3     H1       HT       0.417000       1.00800           0
     27494 TIP3     1728     TIP3     H2       HT       0.417000       1.00800           0
     27495 TIP3     1729     TIP3     OH2      OT      -0.834000       15.9994           0
     27496 TIP3     1729     TIP3     H1       HT       0.417000       1.00800           0
     27497 TIP3     1729     TIP3     H2       HT       0.417000       1.00800           0
     27498 TIP3     1730     TIP3     OH2      OT      -0.834000       15.9994           0
     27499 TIP3     1730     TIP3     H1       HT       0.417000       1.00800           0
     27500 TIP3     1730     TIP3     H2       HT       0.417000       1.00800           0
     27501 TIP3     1731     TIP3     OH2      OT      -0.834000       15.9994           0
     27502 TIP3     1731     TIP3     H1       HT       0.417000       1.00800           0
     27503 TIP3     1731     TIP3     H2       HT       0.417000       1.00800           0
     27504 TIP3     1732     TIP3     OH2      OT      -0.834000       15.9994           0
     27505 TIP3     1732     TIP3     H1       HT       0.417000       1.00800           0
     27506 TIP3     1732     TIP3     H2       HT       0.417000       1.00800           0
     27507 TIP3     1733     TIP3     OH2      OT      -0.834000       15.9994           0
     27508 TIP3     1733     TIP3     H1       HT       0.417000       1.00800           0
     27509 TIP3     1733     TIP3     H2       HT       0.417000       1.00800           0
     27510 TIP3     1734     TIP3     OH2      OT      -0.834000       15.9994           0
     27511 TIP3     1734     TIP3     H1       HT       0.417000       1.00800           0
     27512 TIP3     1734     TIP3     H2       HT       0.417000       1.00800           0
     27513 TIP3     1735     TIP3     OH2      OT      -0.834000       15.9994           0
     27514 TIP3     1735     TIP3     H1       HT       0.417000       1.00800           0
     27515 TIP3     1735     TIP3     H2       HT       0.417000       1.00800           0
     27516 TIP3     1736     TIP3     OH2      OT      -0.834000       15.9994           0
     27517 TIP3     1736     TIP3     H1       HT       0.417000       1.00800           0
     27518 TIP3     1736     TIP3     H2       HT       0.417000       1.00800           0
     27519 TIP3     1737     TIP3     OH2      OT      -0.834000       15.9994           0
     27520 TIP3     1737     TIP3     H1       HT       0.417000       1.00800           0
     27521 TIP3     1737     TIP3     H2       HT       0.417000       1.00800           0
     27522 TIP3     1738     TIP3     OH2      OT      -0.834000       15.9994           0
     27523 TIP3     1738     TIP3     H1       HT       0.417000       1.00800           0
     27524 TIP3     1738     TIP3     H2       HT       0.417000       1.00800           0
     27525 TIP3     1739     TIP3     OH2      OT      -0.834000       15.9994           0
     27526 TIP3     1739     TIP3     H1       HT       0.417000       1.00800           0
     27527 TIP3     1739     TIP3     H2       HT       0.417000       1.00800           0
     27528 TIP3     1740     TIP3     OH2      OT      -0.834000       15.9994           0
     27529 TIP3     1740     TIP3     H1       HT       0.417000       1.00800           0
     27530 TIP3     1740     TIP3     H2       HT       0.417000       1.00800           0
     27531 TIP3     1741     TIP3     OH2      OT      -0.834000       15.9994           0
     27532 TIP3     1741     TIP3     H1       HT       0.417000       1.00800           0
     27533 TIP3     1741     TIP3     H2       HT       0.417000       1.00800           0
     27534 TIP3     1742     TIP3     OH2      OT      -0.834000       15.9994           0
     27535 TIP3     1742     TIP3     H1       HT       0.417000       1.00800           0
     27536 TIP3     1742     TIP3     H2       HT       0.417000       1.00800           0
     27537 TIP3     1743     TIP3     OH2      OT      -0.834000       15.9994           0
     27538 TIP3     1743     TIP3     H1       HT       0.417000       1.00800           0
     27539 TIP3     1743     TIP3     H2       HT       0.417000       1.00800           0
     27540 TIP3     1744     TIP3     OH2      OT      -0.834000       15.9994           0
     27541 TIP3     1744     TIP3     H1       HT       0.417000       1.00800           0
     27542 TIP3     1744     TIP3     H2       HT       0.417000       1.00800           0
     27543 TIP3     1745     TIP3     OH2      OT      -0.834000       15.9994           0
     27544 TIP3     1745     TIP3     H1       HT       0.417000       1.00800           0
     27545 TIP3     1745     TIP3     H2       HT       0.417000       1.00800           0
     27546 TIP3     1746     TIP3     OH2      OT      -0.834000       15.9994           0
     27547 TIP3     1746     TIP3     H1       HT       0.417000       1.00800           0
     27548 TIP3     1746     TIP3     H2       HT       0.417000       1.00800           0
     27549 TIP3     1747     TIP3     OH2      OT      -0.834000       15.9994           0
     27550 TIP3     1747     TIP3     H1       HT       0.417000       1.00800           0
     27551 TIP3     1747     TIP3     H2       HT       0.417000       1.00800           0
     27552 TIP3     1748     TIP3     OH2      OT      -0.834000       15.9994           0
     27553 TIP3     1748     TIP3     H1       HT       0.417000       1.00800           0
     27554 TIP3     1748     TIP3     H2       HT       0.417000       1.00800           0
     27555 TIP3     1749     TIP3     OH2      OT      -0.834000       15.9994           0
     27556 TIP3     1749     TIP3     H1       HT       0.417000       1.00800           0
     27557 TIP3     1749     TIP3     H2       HT       0.417000       1.00800           0
     27558 TIP3     1750     TIP3     OH2      OT      -0.834000       15.9994           0
     27559 TIP3     1750     TIP3     H1       HT       0.417000       1.00800           0
     27560 TIP3     1750     TIP3     H2       HT       0.417000       1.00800           0
     27561 TIP3     1751     TIP3     OH2      OT      -0.834000       15.9994           0
     27562 TIP3     1751     TIP3     H1       HT       0.417000       1.00800           0
     27563 TIP3     1751     TIP3     H2       HT       0.417000       1.00800           0
     27564 TIP3     1752     TIP3     OH2      OT      -0.834000       15.9994           0
     27565 TIP3     1752     TIP3     H1       HT       0.417000       1.00800           0
     27566 TIP3     1752     TIP3     H2       HT       0.417000       1.00800           0
     27567 TIP3     1753     TIP3     OH2      OT      -0.834000       15.9994           0
     27568 TIP3     1753     TIP3     H1       HT       0.417000       1.00800           0
     27569 TIP3     1753     TIP3     H2       HT       0.417000       1.00800           0
     27570 TIP3     1754     TIP3     OH2      OT      -0.834000       15.9994           0
     27571 TIP3     1754     TIP3     H1       HT       0.417000       1.00800           0
     27572 TIP3     1754     TIP3     H2       HT       0.417000       1.00800           0
     27573 TIP3     1755     TIP3     OH2      OT      -0.834000       15.9994           0
     27574 TIP3     1755     TIP3     H1       HT       0.417000       1.00800           0
     27575 TIP3     1755     TIP3     H2       HT       0.417000       1.00800           0
     27576 TIP3     1756     TIP3     OH2      OT      -0.834000       15.9994           0
     27577 TIP3     1756     TIP3     H1       HT       0.417000       1.00800           0
     27578 TIP3     1756     TIP3     H2       HT       0.417000       1.00800           0
     27579 TIP3     1757     TIP3     OH2      OT      -0.834000       15.9994           0
     27580 TIP3     1757     TIP3     H1       HT       0.417000       1.00800           0
     27581 TIP3     1757     TIP3     H2       HT       0.417000       1.00800           0
     27582 TIP3     1758     TIP3     OH2      OT      -0.834000       15.9994           0
     27583 TIP3     1758     TIP3     H1       HT       0.417000       1.00800           0
     27584 TIP3     1758     TIP3     H2       HT       0.417000       1.00800           0
     27585 TIP3     1759     TIP3     OH2      OT      -0.834000       15.9994           0
     27586 TIP3     1759     TIP3     H1       HT       0.417000       1.00800           0
     27587 TIP3     1759     TIP3     H2       HT       0.417000       1.00800           0
     27588 TIP3     1760     TIP3     OH2      OT      -0.834000       15.9994           0
     27589 TIP3     1760     TIP3     H1       HT       0.417000       1.00800           0
     27590 TIP3     1760     TIP3     H2       HT       0.417000       1.00800           0
     27591 TIP3     1761     TIP3     OH2      OT      -0.834000       15.9994           0
     27592 TIP3     1761     TIP3     H1       HT       0.417000       1.00800           0
     27593 TIP3     1761     TIP3     H2       HT       0.417000       1.00800           0
     27594 TIP3     1762     TIP3     OH2      OT      -0.834000       15.9994           0
     27595 TIP3     1762     TIP3     H1       HT       0.417000       1.00800           0
     27596 TIP3     1762     TIP3     H2       HT       0.417000       1.00800           0
     27597 TIP3     1763     TIP3     OH2      OT      -0.834000       15.9994           0
     27598 TIP3     1763     TIP3     H1       HT       0.417000       1.00800           0
     27599 TIP3     1763     TIP3     H2       HT       0.417000       1.00800           0
     27600 TIP3     1764     TIP3     OH2      OT      -0.834000       15.9994           0
     27601 TIP3     1764     TIP3     H1       HT       0.417000       1.00800           0
     27602 TIP3     1764     TIP3     H2       HT       0.417000       1.00800           0
     27603 TIP3     1765     TIP3     OH2      OT      -0.834000       15.9994           0
     27604 TIP3     1765     TIP3     H1       HT       0.417000       1.00800           0
     27605 TIP3     1765     TIP3     H2       HT       0.417000       1.00800           0
     27606 TIP3     1766     TIP3     OH2      OT      -0.834000       15.9994           0
     27607 TIP3     1766     TIP3     H1       HT       0.417000       1.00800           0
     27608 TIP3     1766     TIP3     H2       HT       0.417000       1.00800           0
     27609 TIP3     1767     TIP3     OH2      OT      -0.834000       15.9994           0
     27610 TIP3     1767     TIP3     H1       HT       0.417000       1.00800           0
     27611 TIP3     1767     TIP3     H2       HT       0.417000       1.00800           0
     27612 TIP3     1768     TIP3     OH2      OT      -0.834000       15.9994           0
     27613 TIP3     1768     TIP3     H1       HT       0.417000       1.00800           0
     27614 TIP3     1768     TIP3     H2       HT       0.417000       1.00800           0
     27615 TIP3     1769     TIP3     OH2      OT      -0.834000       15.9994           0
     27616 TIP3     1769     TIP3     H1       HT       0.417000       1.00800           0
     27617 TIP3     1769     TIP3     H2       HT       0.417000       1.00800           0
     27618 TIP3     1770     TIP3     OH2      OT      -0.834000       15.9994           0
     27619 TIP3     1770     TIP3     H1       HT       0.417000       1.00800           0
     27620 TIP3     1770     TIP3     H2       HT       0.417000       1.00800           0
     27621 TIP3     1771     TIP3     OH2      OT      -0.834000       15.9994           0
     27622 TIP3     1771     TIP3     H1       HT       0.417000       1.00800           0
     27623 TIP3     1771     TIP3     H2       HT       0.417000       1.00800           0
     27624 TIP3     1772     TIP3     OH2      OT      -0.834000       15.9994           0
     27625 TIP3     1772     TIP3     H1       HT       0.417000       1.00800           0
     27626 TIP3     1772     TIP3     H2       HT       0.417000       1.00800           0
     27627 TIP3     1773     TIP3     OH2      OT      -0.834000       15.9994           0
     27628 TIP3     1773     TIP3     H1       HT       0.417000       1.00800           0
     27629 TIP3     1773     TIP3     H2       HT       0.417000       1.00800           0
     27630 TIP3     1774     TIP3     OH2      OT      -0.834000       15.9994           0
     27631 TIP3     1774     TIP3     H1       HT       0.417000       1.00800           0
     27632 TIP3     1774     TIP3     H2       HT       0.417000       1.00800           0
     27633 TIP3     1775     TIP3     OH2      OT      -0.834000       15.9994           0
     27634 TIP3     1775     TIP3     H1       HT       0.417000       1.00800           0
     27635 TIP3     1775     TIP3     H2       HT       0.417000       1.00800           0
     27636 TIP3     1776     TIP3     OH2      OT      -0.834000       15.9994           0
     27637 TIP3     1776     TIP3     H1       HT       0.417000       1.00800           0
     27638 TIP3     1776     TIP3     H2       HT       0.417000       1.00800           0
     27639 TIP3     1777     TIP3     OH2      OT      -0.834000       15.9994           0
     27640 TIP3     1777     TIP3     H1       HT       0.417000       1.00800           0
     27641 TIP3     1777     TIP3     H2       HT       0.417000       1.00800           0
     27642 TIP3     1778     TIP3     OH2      OT      -0.834000       15.9994           0
     27643 TIP3     1778     TIP3     H1       HT       0.417000       1.00800           0
     27644 TIP3     1778     TIP3     H2       HT       0.417000       1.00800           0
     27645 TIP3     1779     TIP3     OH2      OT      -0.834000       15.9994           0
     27646 TIP3     1779     TIP3     H1       HT       0.417000       1.00800           0
     27647 TIP3     1779     TIP3     H2       HT       0.417000       1.00800           0
     27648 TIP3     1780     TIP3     OH2      OT      -0.834000       15.9994           0
     27649 TIP3     1780     TIP3     H1       HT       0.417000       1.00800           0
     27650 TIP3     1780     TIP3     H2       HT       0.417000       1.00800           0
     27651 TIP3     1781     TIP3     OH2      OT      -0.834000       15.9994           0
     27652 TIP3     1781     TIP3     H1       HT       0.417000       1.00800           0
     27653 TIP3     1781     TIP3     H2       HT       0.417000       1.00800           0
     27654 TIP3     1782     TIP3     OH2      OT      -0.834000       15.9994           0
     27655 TIP3     1782     TIP3     H1       HT       0.417000       1.00800           0
     27656 TIP3     1782     TIP3     H2       HT       0.417000       1.00800           0
     27657 TIP3     1783     TIP3     OH2      OT      -0.834000       15.9994           0
     27658 TIP3     1783     TIP3     H1       HT       0.417000       1.00800           0
     27659 TIP3     1783     TIP3     H2       HT       0.417000       1.00800           0
     27660 TIP3     1784     TIP3     OH2      OT      -0.834000       15.9994           0
     27661 TIP3     1784     TIP3     H1       HT       0.417000       1.00800           0
     27662 TIP3     1784     TIP3     H2       HT       0.417000       1.00800           0
     27663 TIP3     1785     TIP3     OH2      OT      -0.834000       15.9994           0
     27664 TIP3     1785     TIP3     H1       HT       0.417000       1.00800           0
     27665 TIP3     1785     TIP3     H2       HT       0.417000       1.00800           0
     27666 TIP3     1786     TIP3     OH2      OT      -0.834000       15.9994           0
     27667 TIP3     1786     TIP3     H1       HT       0.417000       1.00800           0
     27668 TIP3     1786     TIP3     H2       HT       0.417000       1.00800           0
     27669 TIP3     1787     TIP3     OH2      OT      -0.834000       15.9994           0
     27670 TIP3     1787     TIP3     H1       HT       0.417000       1.00800           0
     27671 TIP3     1787     TIP3     H2       HT       0.417000       1.00800           0
     27672 TIP3     1788     TIP3     OH2      OT      -0.834000       15.9994           0
     27673 TIP3     1788     TIP3     H1       HT       0.417000       1.00800           0
     27674 TIP3     1788     TIP3     H2       HT       0.417000       1.00800           0
     27675 TIP3     1789     TIP3     OH2      OT      -0.834000       15.9994           0
     27676 TIP3     1789     TIP3     H1       HT       0.417000       1.00800           0
     27677 TIP3     1789     TIP3     H2       HT       0.417000       1.00800           0
     27678 TIP3     1790     TIP3     OH2      OT      -0.834000       15.9994           0
     27679 TIP3     1790     TIP3     H1       HT       0.417000       1.00800           0
     27680 TIP3     1790     TIP3     H2       HT       0.417000       1.00800           0
     27681 TIP3     1791     TIP3     OH2      OT      -0.834000       15.9994           0
     27682 TIP3     1791     TIP3     H1       HT       0.417000       1.00800           0
     27683 TIP3     1791     TIP3     H2       HT       0.417000       1.00800           0
     27684 TIP3     1792     TIP3     OH2      OT      -0.834000       15.9994           0
     27685 TIP3     1792     TIP3     H1       HT       0.417000       1.00800           0
     27686 TIP3     1792     TIP3     H2       HT       0.417000       1.00800           0
     27687 TIP3     1793     TIP3     OH2      OT      -0.834000       15.9994           0
     27688 TIP3     1793     TIP3     H1       HT       0.417000       1.00800           0
     27689 TIP3     1793     TIP3     H2       HT       0.417000       1.00800           0
     27690 TIP3     1794     TIP3     OH2      OT      -0.834000       15.9994           0
     27691 TIP3     1794     TIP3     H1       HT       0.417000       1.00800           0
     27692 TIP3     1794     TIP3     H2       HT       0.417000       1.00800           0
     27693 TIP3     1795     TIP3     OH2      OT      -0.834000       15.9994           0
     27694 TIP3     1795     TIP3     H1       HT       0.417000       1.00800           0
     27695 TIP3     1795     TIP3     H2       HT       0.417000       1.00800           0
     27696 TIP3     1796     TIP3     OH2      OT      -0.834000       15.9994           0
     27697 TIP3     1796     TIP3     H1       HT       0.417000       1.00800           0
     27698 TIP3     1796     TIP3     H2       HT       0.417000       1.00800           0
     27699 TIP3     1797     TIP3     OH2      OT      -0.834000       15.9994           0
     27700 TIP3     1797     TIP3     H1       HT       0.417000       1.00800           0
     27701 TIP3     1797     TIP3     H2       HT       0.417000       1.00800           0
     27702 TIP3     1798     TIP3     OH2      OT      -0.834000       15.9994           0
     27703 TIP3     1798     TIP3     H1       HT       0.417000       1.00800           0
     27704 TIP3     1798     TIP3     H2       HT       0.417000       1.00800           0
     27705 TIP3     1799     TIP3     OH2      OT      -0.834000       15.9994           0
     27706 TIP3     1799     TIP3     H1       HT       0.417000       1.00800           0
     27707 TIP3     1799     TIP3     H2       HT       0.417000       1.00800           0
     27708 TIP3     1800     TIP3     OH2      OT      -0.834000       15.9994           0
     27709 TIP3     1800     TIP3     H1       HT       0.417000       1.00800           0
     27710 TIP3     1800     TIP3     H2       HT       0.417000       1.00800           0
     27711 TIP3     1801     TIP3     OH2      OT      -0.834000       15.9994           0
     27712 TIP3     1801     TIP3     H1       HT       0.417000       1.00800           0
     27713 TIP3     1801     TIP3     H2       HT       0.417000       1.00800           0
     27714 TIP3     1802     TIP3     OH2      OT      -0.834000       15.9994           0
     27715 TIP3     1802     TIP3     H1       HT       0.417000       1.00800           0
     27716 TIP3     1802     TIP3     H2       HT       0.417000       1.00800           0
     27717 TIP3     1803     TIP3     OH2      OT      -0.834000       15.9994           0
     27718 TIP3     1803     TIP3     H1       HT       0.417000       1.00800           0
     27719 TIP3     1803     TIP3     H2       HT       0.417000       1.00800           0
     27720 TIP3     1804     TIP3     OH2      OT      -0.834000       15.9994           0
     27721 TIP3     1804     TIP3     H1       HT       0.417000       1.00800           0
     27722 TIP3     1804     TIP3     H2       HT       0.417000       1.00800           0
     27723 TIP3     1805     TIP3     OH2      OT      -0.834000       15.9994           0
     27724 TIP3     1805     TIP3     H1       HT       0.417000       1.00800           0
     27725 TIP3     1805     TIP3     H2       HT       0.417000       1.00800           0
     27726 TIP3     1806     TIP3     OH2      OT      -0.834000       15.9994           0
     27727 TIP3     1806     TIP3     H1       HT       0.417000       1.00800           0
     27728 TIP3     1806     TIP3     H2       HT       0.417000       1.00800           0
     27729 TIP3     1807     TIP3     OH2      OT      -0.834000       15.9994           0
     27730 TIP3     1807     TIP3     H1       HT       0.417000       1.00800           0
     27731 TIP3     1807     TIP3     H2       HT       0.417000       1.00800           0
     27732 TIP3     1808     TIP3     OH2      OT      -0.834000       15.9994           0
     27733 TIP3     1808     TIP3     H1       HT       0.417000       1.00800           0
     27734 TIP3     1808     TIP3     H2       HT       0.417000       1.00800           0
     27735 TIP3     1809     TIP3     OH2      OT      -0.834000       15.9994           0
     27736 TIP3     1809     TIP3     H1       HT       0.417000       1.00800           0
     27737 TIP3     1809     TIP3     H2       HT       0.417000       1.00800           0
     27738 TIP3     1810     TIP3     OH2      OT      -0.834000       15.9994           0
     27739 TIP3     1810     TIP3     H1       HT       0.417000       1.00800           0
     27740 TIP3     1810     TIP3     H2       HT       0.417000       1.00800           0
     27741 TIP3     1811     TIP3     OH2      OT      -0.834000       15.9994           0
     27742 TIP3     1811     TIP3     H1       HT       0.417000       1.00800           0
     27743 TIP3     1811     TIP3     H2       HT       0.417000       1.00800           0
     27744 TIP3     1812     TIP3     OH2      OT      -0.834000       15.9994           0
     27745 TIP3     1812     TIP3     H1       HT       0.417000       1.00800           0
     27746 TIP3     1812     TIP3     H2       HT       0.417000       1.00800           0
     27747 TIP3     1813     TIP3     OH2      OT      -0.834000       15.9994           0
     27748 TIP3     1813     TIP3     H1       HT       0.417000       1.00800           0
     27749 TIP3     1813     TIP3     H2       HT       0.417000       1.00800           0
     27750 TIP3     1814     TIP3     OH2      OT      -0.834000       15.9994           0
     27751 TIP3     1814     TIP3     H1       HT       0.417000       1.00800           0
     27752 TIP3     1814     TIP3     H2       HT       0.417000       1.00800           0
     27753 TIP3     1815     TIP3     OH2      OT      -0.834000       15.9994           0
     27754 TIP3     1815     TIP3     H1       HT       0.417000       1.00800           0
     27755 TIP3     1815     TIP3     H2       HT       0.417000       1.00800           0
     27756 TIP3     1816     TIP3     OH2      OT      -0.834000       15.9994           0
     27757 TIP3     1816     TIP3     H1       HT       0.417000       1.00800           0
     27758 TIP3     1816     TIP3     H2       HT       0.417000       1.00800           0
     27759 TIP3     1817     TIP3     OH2      OT      -0.834000       15.9994           0
     27760 TIP3     1817     TIP3     H1       HT       0.417000       1.00800           0
     27761 TIP3     1817     TIP3     H2       HT       0.417000       1.00800           0
     27762 TIP3     1818     TIP3     OH2      OT      -0.834000       15.9994           0
     27763 TIP3     1818     TIP3     H1       HT       0.417000       1.00800           0
     27764 TIP3     1818     TIP3     H2       HT       0.417000       1.00800           0
     27765 TIP3     1819     TIP3     OH2      OT      -0.834000       15.9994           0
     27766 TIP3     1819     TIP3     H1       HT       0.417000       1.00800           0
     27767 TIP3     1819     TIP3     H2       HT       0.417000       1.00800           0
     27768 TIP3     1820     TIP3     OH2      OT      -0.834000       15.9994           0
     27769 TIP3     1820     TIP3     H1       HT       0.417000       1.00800           0
     27770 TIP3     1820     TIP3     H2       HT       0.417000       1.00800           0
     27771 TIP3     1821     TIP3     OH2      OT      -0.834000       15.9994           0
     27772 TIP3     1821     TIP3     H1       HT       0.417000       1.00800           0
     27773 TIP3     1821     TIP3     H2       HT       0.417000       1.00800           0
     27774 TIP3     1822     TIP3     OH2      OT      -0.834000       15.9994           0
     27775 TIP3     1822     TIP3     H1       HT       0.417000       1.00800           0
     27776 TIP3     1822     TIP3     H2       HT       0.417000       1.00800           0
     27777 TIP3     1823     TIP3     OH2      OT      -0.834000       15.9994           0
     27778 TIP3     1823     TIP3     H1       HT       0.417000       1.00800           0
     27779 TIP3     1823     TIP3     H2       HT       0.417000       1.00800           0
     27780 TIP3     1824     TIP3     OH2      OT      -0.834000       15.9994           0
     27781 TIP3     1824     TIP3     H1       HT       0.417000       1.00800           0
     27782 TIP3     1824     TIP3     H2       HT       0.417000       1.00800           0
     27783 TIP3     1825     TIP3     OH2      OT      -0.834000       15.9994           0
     27784 TIP3     1825     TIP3     H1       HT       0.417000       1.00800           0
     27785 TIP3     1825     TIP3     H2       HT       0.417000       1.00800           0
     27786 TIP3     1826     TIP3     OH2      OT      -0.834000       15.9994           0
     27787 TIP3     1826     TIP3     H1       HT       0.417000       1.00800           0
     27788 TIP3     1826     TIP3     H2       HT       0.417000       1.00800           0
     27789 TIP3     1827     TIP3     OH2      OT      -0.834000       15.9994           0
     27790 TIP3     1827     TIP3     H1       HT       0.417000       1.00800           0
     27791 TIP3     1827     TIP3     H2       HT       0.417000       1.00800           0
     27792 TIP3     1828     TIP3     OH2      OT      -0.834000       15.9994           0
     27793 TIP3     1828     TIP3     H1       HT       0.417000       1.00800           0
     27794 TIP3     1828     TIP3     H2       HT       0.417000       1.00800           0
     27795 TIP3     1829     TIP3     OH2      OT      -0.834000       15.9994           0
     27796 TIP3     1829     TIP3     H1       HT       0.417000       1.00800           0
     27797 TIP3     1829     TIP3     H2       HT       0.417000       1.00800           0
     27798 TIP3     1830     TIP3     OH2      OT      -0.834000       15.9994           0
     27799 TIP3     1830     TIP3     H1       HT       0.417000       1.00800           0
     27800 TIP3     1830     TIP3     H2       HT       0.417000       1.00800           0
     27801 TIP3     1831     TIP3     OH2      OT      -0.834000       15.9994           0
     27802 TIP3     1831     TIP3     H1       HT       0.417000       1.00800           0
     27803 TIP3     1831     TIP3     H2       HT       0.417000       1.00800           0
     27804 TIP3     1832     TIP3     OH2      OT      -0.834000       15.9994           0
     27805 TIP3     1832     TIP3     H1       HT       0.417000       1.00800           0
     27806 TIP3     1832     TIP3     H2       HT       0.417000       1.00800           0
     27807 TIP3     1833     TIP3     OH2      OT      -0.834000       15.9994           0
     27808 TIP3     1833     TIP3     H1       HT       0.417000       1.00800           0
     27809 TIP3     1833     TIP3     H2       HT       0.417000       1.00800           0
     27810 TIP3     1834     TIP3     OH2      OT      -0.834000       15.9994           0
     27811 TIP3     1834     TIP3     H1       HT       0.417000       1.00800           0
     27812 TIP3     1834     TIP3     H2       HT       0.417000       1.00800           0
     27813 TIP3     1835     TIP3     OH2      OT      -0.834000       15.9994           0
     27814 TIP3     1835     TIP3     H1       HT       0.417000       1.00800           0
     27815 TIP3     1835     TIP3     H2       HT       0.417000       1.00800           0
     27816 TIP3     1836     TIP3     OH2      OT      -0.834000       15.9994           0
     27817 TIP3     1836     TIP3     H1       HT       0.417000       1.00800           0
     27818 TIP3     1836     TIP3     H2       HT       0.417000       1.00800           0
     27819 TIP3     1837     TIP3     OH2      OT      -0.834000       15.9994           0
     27820 TIP3     1837     TIP3     H1       HT       0.417000       1.00800           0
     27821 TIP3     1837     TIP3     H2       HT       0.417000       1.00800           0
     27822 TIP3     1838     TIP3     OH2      OT      -0.834000       15.9994           0
     27823 TIP3     1838     TIP3     H1       HT       0.417000       1.00800           0
     27824 TIP3     1838     TIP3     H2       HT       0.417000       1.00800           0
     27825 TIP3     1839     TIP3     OH2      OT      -0.834000       15.9994           0
     27826 TIP3     1839     TIP3     H1       HT       0.417000       1.00800           0
     27827 TIP3     1839     TIP3     H2       HT       0.417000       1.00800           0
     27828 TIP3     1840     TIP3     OH2      OT      -0.834000       15.9994           0
     27829 TIP3     1840     TIP3     H1       HT       0.417000       1.00800           0
     27830 TIP3     1840     TIP3     H2       HT       0.417000       1.00800           0
     27831 TIP3     1841     TIP3     OH2      OT      -0.834000       15.9994           0
     27832 TIP3     1841     TIP3     H1       HT       0.417000       1.00800           0
     27833 TIP3     1841     TIP3     H2       HT       0.417000       1.00800           0
     27834 TIP3     1842     TIP3     OH2      OT      -0.834000       15.9994           0
     27835 TIP3     1842     TIP3     H1       HT       0.417000       1.00800           0
     27836 TIP3     1842     TIP3     H2       HT       0.417000       1.00800           0
     27837 TIP3     1843     TIP3     OH2      OT      -0.834000       15.9994           0
     27838 TIP3     1843     TIP3     H1       HT       0.417000       1.00800           0
     27839 TIP3     1843     TIP3     H2       HT       0.417000       1.00800           0
     27840 TIP3     1844     TIP3     OH2      OT      -0.834000       15.9994           0
     27841 TIP3     1844     TIP3     H1       HT       0.417000       1.00800           0
     27842 TIP3     1844     TIP3     H2       HT       0.417000       1.00800           0
     27843 TIP3     1845     TIP3     OH2      OT      -0.834000       15.9994           0
     27844 TIP3     1845     TIP3     H1       HT       0.417000       1.00800           0
     27845 TIP3     1845     TIP3     H2       HT       0.417000       1.00800           0
     27846 TIP3     1846     TIP3     OH2      OT      -0.834000       15.9994           0
     27847 TIP3     1846     TIP3     H1       HT       0.417000       1.00800           0
     27848 TIP3     1846     TIP3     H2       HT       0.417000       1.00800           0
     27849 TIP3     1847     TIP3     OH2      OT      -0.834000       15.9994           0
     27850 TIP3     1847     TIP3     H1       HT       0.417000       1.00800           0
     27851 TIP3     1847     TIP3     H2       HT       0.417000       1.00800           0
     27852 TIP3     1848     TIP3     OH2      OT      -0.834000       15.9994           0
     27853 TIP3     1848     TIP3     H1       HT       0.417000       1.00800           0
     27854 TIP3     1848     TIP3     H2       HT       0.417000       1.00800           0
     27855 TIP3     1849     TIP3     OH2      OT      -0.834000       15.9994           0
     27856 TIP3     1849     TIP3     H1       HT       0.417000       1.00800           0
     27857 TIP3     1849     TIP3     H2       HT       0.417000       1.00800           0
     27858 TIP3     1850     TIP3     OH2      OT      -0.834000       15.9994           0
     27859 TIP3     1850     TIP3     H1       HT       0.417000       1.00800           0
     27860 TIP3     1850     TIP3     H2       HT       0.417000       1.00800           0
     27861 TIP3     1851     TIP3     OH2      OT      -0.834000       15.9994           0
     27862 TIP3     1851     TIP3     H1       HT       0.417000       1.00800           0
     27863 TIP3     1851     TIP3     H2       HT       0.417000       1.00800           0
     27864 TIP3     1852     TIP3     OH2      OT      -0.834000       15.9994           0
     27865 TIP3     1852     TIP3     H1       HT       0.417000       1.00800           0
     27866 TIP3     1852     TIP3     H2       HT       0.417000       1.00800           0
     27867 TIP3     1853     TIP3     OH2      OT      -0.834000       15.9994           0
     27868 TIP3     1853     TIP3     H1       HT       0.417000       1.00800           0
     27869 TIP3     1853     TIP3     H2       HT       0.417000       1.00800           0
     27870 TIP3     1854     TIP3     OH2      OT      -0.834000       15.9994           0
     27871 TIP3     1854     TIP3     H1       HT       0.417000       1.00800           0
     27872 TIP3     1854     TIP3     H2       HT       0.417000       1.00800           0
     27873 TIP3     1855     TIP3     OH2      OT      -0.834000       15.9994           0
     27874 TIP3     1855     TIP3     H1       HT       0.417000       1.00800           0
     27875 TIP3     1855     TIP3     H2       HT       0.417000       1.00800           0
     27876 TIP3     1856     TIP3     OH2      OT      -0.834000       15.9994           0
     27877 TIP3     1856     TIP3     H1       HT       0.417000       1.00800           0
     27878 TIP3     1856     TIP3     H2       HT       0.417000       1.00800           0
     27879 TIP3     1857     TIP3     OH2      OT      -0.834000       15.9994           0
     27880 TIP3     1857     TIP3     H1       HT       0.417000       1.00800           0
     27881 TIP3     1857     TIP3     H2       HT       0.417000       1.00800           0
     27882 TIP3     1858     TIP3     OH2      OT      -0.834000       15.9994           0
     27883 TIP3     1858     TIP3     H1       HT       0.417000       1.00800           0
     27884 TIP3     1858     TIP3     H2       HT       0.417000       1.00800           0
     27885 TIP3     1859     TIP3     OH2      OT      -0.834000       15.9994           0
     27886 TIP3     1859     TIP3     H1       HT       0.417000       1.00800           0
     27887 TIP3     1859     TIP3     H2       HT       0.417000       1.00800           0
     27888 TIP3     1860     TIP3     OH2      OT      -0.834000       15.9994           0
     27889 TIP3     1860     TIP3     H1       HT       0.417000       1.00800           0
     27890 TIP3     1860     TIP3     H2       HT       0.417000       1.00800           0
     27891 TIP3     1861     TIP3     OH2      OT      -0.834000       15.9994           0
     27892 TIP3     1861     TIP3     H1       HT       0.417000       1.00800           0
     27893 TIP3     1861     TIP3     H2       HT       0.417000       1.00800           0
     27894 TIP3     1862     TIP3     OH2      OT      -0.834000       15.9994           0
     27895 TIP3     1862     TIP3     H1       HT       0.417000       1.00800           0
     27896 TIP3     1862     TIP3     H2       HT       0.417000       1.00800           0
     27897 TIP3     1863     TIP3     OH2      OT      -0.834000       15.9994           0
     27898 TIP3     1863     TIP3     H1       HT       0.417000       1.00800           0
     27899 TIP3     1863     TIP3     H2       HT       0.417000       1.00800           0
     27900 TIP3     1864     TIP3     OH2      OT      -0.834000       15.9994           0
     27901 TIP3     1864     TIP3     H1       HT       0.417000       1.00800           0
     27902 TIP3     1864     TIP3     H2       HT       0.417000       1.00800           0
     27903 TIP3     1865     TIP3     OH2      OT      -0.834000       15.9994           0
     27904 TIP3     1865     TIP3     H1       HT       0.417000       1.00800           0
     27905 TIP3     1865     TIP3     H2       HT       0.417000       1.00800           0
     27906 TIP3     1866     TIP3     OH2      OT      -0.834000       15.9994           0
     27907 TIP3     1866     TIP3     H1       HT       0.417000       1.00800           0
     27908 TIP3     1866     TIP3     H2       HT       0.417000       1.00800           0
     27909 TIP3     1867     TIP3     OH2      OT      -0.834000       15.9994           0
     27910 TIP3     1867     TIP3     H1       HT       0.417000       1.00800           0
     27911 TIP3     1867     TIP3     H2       HT       0.417000       1.00800           0
     27912 TIP3     1868     TIP3     OH2      OT      -0.834000       15.9994           0
     27913 TIP3     1868     TIP3     H1       HT       0.417000       1.00800           0
     27914 TIP3     1868     TIP3     H2       HT       0.417000       1.00800           0
     27915 TIP3     1869     TIP3     OH2      OT      -0.834000       15.9994           0
     27916 TIP3     1869     TIP3     H1       HT       0.417000       1.00800           0
     27917 TIP3     1869     TIP3     H2       HT       0.417000       1.00800           0
     27918 TIP3     1870     TIP3     OH2      OT      -0.834000       15.9994           0
     27919 TIP3     1870     TIP3     H1       HT       0.417000       1.00800           0
     27920 TIP3     1870     TIP3     H2       HT       0.417000       1.00800           0
     27921 TIP3     1871     TIP3     OH2      OT      -0.834000       15.9994           0
     27922 TIP3     1871     TIP3     H1       HT       0.417000       1.00800           0
     27923 TIP3     1871     TIP3     H2       HT       0.417000       1.00800           0
     27924 TIP3     1872     TIP3     OH2      OT      -0.834000       15.9994           0
     27925 TIP3     1872     TIP3     H1       HT       0.417000       1.00800           0
     27926 TIP3     1872     TIP3     H2       HT       0.417000       1.00800           0
     27927 TIP3     1873     TIP3     OH2      OT      -0.834000       15.9994           0
     27928 TIP3     1873     TIP3     H1       HT       0.417000       1.00800           0
     27929 TIP3     1873     TIP3     H2       HT       0.417000       1.00800           0
     27930 TIP3     1874     TIP3     OH2      OT      -0.834000       15.9994           0
     27931 TIP3     1874     TIP3     H1       HT       0.417000       1.00800           0
     27932 TIP3     1874     TIP3     H2       HT       0.417000       1.00800           0
     27933 TIP3     1875     TIP3     OH2      OT      -0.834000       15.9994           0
     27934 TIP3     1875     TIP3     H1       HT       0.417000       1.00800           0
     27935 TIP3     1875     TIP3     H2       HT       0.417000       1.00800           0
     27936 TIP3     1876     TIP3     OH2      OT      -0.834000       15.9994           0
     27937 TIP3     1876     TIP3     H1       HT       0.417000       1.00800           0
     27938 TIP3     1876     TIP3     H2       HT       0.417000       1.00800           0
     27939 TIP3     1877     TIP3     OH2      OT      -0.834000       15.9994           0
     27940 TIP3     1877     TIP3     H1       HT       0.417000       1.00800           0
     27941 TIP3     1877     TIP3     H2       HT       0.417000       1.00800           0
     27942 TIP3     1878     TIP3     OH2      OT      -0.834000       15.9994           0
     27943 TIP3     1878     TIP3     H1       HT       0.417000       1.00800           0
     27944 TIP3     1878     TIP3     H2       HT       0.417000       1.00800           0
     27945 TIP3     1879     TIP3     OH2      OT      -0.834000       15.9994           0
     27946 TIP3     1879     TIP3     H1       HT       0.417000       1.00800           0
     27947 TIP3     1879     TIP3     H2       HT       0.417000       1.00800           0
     27948 TIP3     1880     TIP3     OH2      OT      -0.834000       15.9994           0
     27949 TIP3     1880     TIP3     H1       HT       0.417000       1.00800           0
     27950 TIP3     1880     TIP3     H2       HT       0.417000       1.00800           0
     27951 TIP3     1881     TIP3     OH2      OT      -0.834000       15.9994           0
     27952 TIP3     1881     TIP3     H1       HT       0.417000       1.00800           0
     27953 TIP3     1881     TIP3     H2       HT       0.417000       1.00800           0
     27954 TIP3     1882     TIP3     OH2      OT      -0.834000       15.9994           0
     27955 TIP3     1882     TIP3     H1       HT       0.417000       1.00800           0
     27956 TIP3     1882     TIP3     H2       HT       0.417000       1.00800           0
     27957 TIP3     1883     TIP3     OH2      OT      -0.834000       15.9994           0
     27958 TIP3     1883     TIP3     H1       HT       0.417000       1.00800           0
     27959 TIP3     1883     TIP3     H2       HT       0.417000       1.00800           0
     27960 TIP3     1884     TIP3     OH2      OT      -0.834000       15.9994           0
     27961 TIP3     1884     TIP3     H1       HT       0.417000       1.00800           0
     27962 TIP3     1884     TIP3     H2       HT       0.417000       1.00800           0
     27963 TIP3     1885     TIP3     OH2      OT      -0.834000       15.9994           0
     27964 TIP3     1885     TIP3     H1       HT       0.417000       1.00800           0
     27965 TIP3     1885     TIP3     H2       HT       0.417000       1.00800           0
     27966 TIP3     1886     TIP3     OH2      OT      -0.834000       15.9994           0
     27967 TIP3     1886     TIP3     H1       HT       0.417000       1.00800           0
     27968 TIP3     1886     TIP3     H2       HT       0.417000       1.00800           0
     27969 TIP3     1887     TIP3     OH2      OT      -0.834000       15.9994           0
     27970 TIP3     1887     TIP3     H1       HT       0.417000       1.00800           0
     27971 TIP3     1887     TIP3     H2       HT       0.417000       1.00800           0
     27972 TIP3     1888     TIP3     OH2      OT      -0.834000       15.9994           0
     27973 TIP3     1888     TIP3     H1       HT       0.417000       1.00800           0
     27974 TIP3     1888     TIP3     H2       HT       0.417000       1.00800           0
     27975 TIP3     1889     TIP3     OH2      OT      -0.834000       15.9994           0
     27976 TIP3     1889     TIP3     H1       HT       0.417000       1.00800           0
     27977 TIP3     1889     TIP3     H2       HT       0.417000       1.00800           0
     27978 TIP3     1890     TIP3     OH2      OT      -0.834000       15.9994           0
     27979 TIP3     1890     TIP3     H1       HT       0.417000       1.00800           0
     27980 TIP3     1890     TIP3     H2       HT       0.417000       1.00800           0
     27981 TIP3     1891     TIP3     OH2      OT      -0.834000       15.9994           0
     27982 TIP3     1891     TIP3     H1       HT       0.417000       1.00800           0
     27983 TIP3     1891     TIP3     H2       HT       0.417000       1.00800           0
     27984 TIP3     1892     TIP3     OH2      OT      -0.834000       15.9994           0
     27985 TIP3     1892     TIP3     H1       HT       0.417000       1.00800           0
     27986 TIP3     1892     TIP3     H2       HT       0.417000       1.00800           0
     27987 TIP3     1893     TIP3     OH2      OT      -0.834000       15.9994           0
     27988 TIP3     1893     TIP3     H1       HT       0.417000       1.00800           0
     27989 TIP3     1893     TIP3     H2       HT       0.417000       1.00800           0
     27990 TIP3     1894     TIP3     OH2      OT      -0.834000       15.9994           0
     27991 TIP3     1894     TIP3     H1       HT       0.417000       1.00800           0
     27992 TIP3     1894     TIP3     H2       HT       0.417000       1.00800           0
     27993 TIP3     1895     TIP3     OH2      OT      -0.834000       15.9994           0
     27994 TIP3     1895     TIP3     H1       HT       0.417000       1.00800           0
     27995 TIP3     1895     TIP3     H2       HT       0.417000       1.00800           0
     27996 TIP3     1896     TIP3     OH2      OT      -0.834000       15.9994           0
     27997 TIP3     1896     TIP3     H1       HT       0.417000       1.00800           0
     27998 TIP3     1896     TIP3     H2       HT       0.417000       1.00800           0
     27999 TIP3     1897     TIP3     OH2      OT      -0.834000       15.9994           0
     28000 TIP3     1897     TIP3     H1       HT       0.417000       1.00800           0
     28001 TIP3     1897     TIP3     H2       HT       0.417000       1.00800           0
     28002 TIP3     1898     TIP3     OH2      OT      -0.834000       15.9994           0
     28003 TIP3     1898     TIP3     H1       HT       0.417000       1.00800           0
     28004 TIP3     1898     TIP3     H2       HT       0.417000       1.00800           0
     28005 TIP3     1899     TIP3     OH2      OT      -0.834000       15.9994           0
     28006 TIP3     1899     TIP3     H1       HT       0.417000       1.00800           0
     28007 TIP3     1899     TIP3     H2       HT       0.417000       1.00800           0
     28008 TIP3     1900     TIP3     OH2      OT      -0.834000       15.9994           0
     28009 TIP3     1900     TIP3     H1       HT       0.417000       1.00800           0
     28010 TIP3     1900     TIP3     H2       HT       0.417000       1.00800           0
     28011 TIP3     1901     TIP3     OH2      OT      -0.834000       15.9994           0
     28012 TIP3     1901     TIP3     H1       HT       0.417000       1.00800           0
     28013 TIP3     1901     TIP3     H2       HT       0.417000       1.00800           0
     28014 TIP3     1902     TIP3     OH2      OT      -0.834000       15.9994           0
     28015 TIP3     1902     TIP3     H1       HT       0.417000       1.00800           0
     28016 TIP3     1902     TIP3     H2       HT       0.417000       1.00800           0
     28017 TIP3     1903     TIP3     OH2      OT      -0.834000       15.9994           0
     28018 TIP3     1903     TIP3     H1       HT       0.417000       1.00800           0
     28019 TIP3     1903     TIP3     H2       HT       0.417000       1.00800           0
     28020 TIP3     1904     TIP3     OH2      OT      -0.834000       15.9994           0
     28021 TIP3     1904     TIP3     H1       HT       0.417000       1.00800           0
     28022 TIP3     1904     TIP3     H2       HT       0.417000       1.00800           0
     28023 TIP3     1905     TIP3     OH2      OT      -0.834000       15.9994           0
     28024 TIP3     1905     TIP3     H1       HT       0.417000       1.00800           0
     28025 TIP3     1905     TIP3     H2       HT       0.417000       1.00800           0
     28026 TIP3     1906     TIP3     OH2      OT      -0.834000       15.9994           0
     28027 TIP3     1906     TIP3     H1       HT       0.417000       1.00800           0
     28028 TIP3     1906     TIP3     H2       HT       0.417000       1.00800           0
     28029 TIP3     1907     TIP3     OH2      OT      -0.834000       15.9994           0
     28030 TIP3     1907     TIP3     H1       HT       0.417000       1.00800           0
     28031 TIP3     1907     TIP3     H2       HT       0.417000       1.00800           0
     28032 TIP3     1908     TIP3     OH2      OT      -0.834000       15.9994           0
     28033 TIP3     1908     TIP3     H1       HT       0.417000       1.00800           0
     28034 TIP3     1908     TIP3     H2       HT       0.417000       1.00800           0
     28035 TIP3     1909     TIP3     OH2      OT      -0.834000       15.9994           0
     28036 TIP3     1909     TIP3     H1       HT       0.417000       1.00800           0
     28037 TIP3     1909     TIP3     H2       HT       0.417000       1.00800           0
     28038 TIP3     1910     TIP3     OH2      OT      -0.834000       15.9994           0
     28039 TIP3     1910     TIP3     H1       HT       0.417000       1.00800           0
     28040 TIP3     1910     TIP3     H2       HT       0.417000       1.00800           0
     28041 TIP3     1911     TIP3     OH2      OT      -0.834000       15.9994           0
     28042 TIP3     1911     TIP3     H1       HT       0.417000       1.00800           0
     28043 TIP3     1911     TIP3     H2       HT       0.417000       1.00800           0
     28044 TIP3     1912     TIP3     OH2      OT      -0.834000       15.9994           0
     28045 TIP3     1912     TIP3     H1       HT       0.417000       1.00800           0
     28046 TIP3     1912     TIP3     H2       HT       0.417000       1.00800           0
     28047 TIP3     1913     TIP3     OH2      OT      -0.834000       15.9994           0
     28048 TIP3     1913     TIP3     H1       HT       0.417000       1.00800           0
     28049 TIP3     1913     TIP3     H2       HT       0.417000       1.00800           0
     28050 TIP3     1914     TIP3     OH2      OT      -0.834000       15.9994           0
     28051 TIP3     1914     TIP3     H1       HT       0.417000       1.00800           0
     28052 TIP3     1914     TIP3     H2       HT       0.417000       1.00800           0
     28053 TIP3     1915     TIP3     OH2      OT      -0.834000       15.9994           0
     28054 TIP3     1915     TIP3     H1       HT       0.417000       1.00800           0
     28055 TIP3     1915     TIP3     H2       HT       0.417000       1.00800           0
     28056 TIP3     1916     TIP3     OH2      OT      -0.834000       15.9994           0
     28057 TIP3     1916     TIP3     H1       HT       0.417000       1.00800           0
     28058 TIP3     1916     TIP3     H2       HT       0.417000       1.00800           0
     28059 TIP3     1917     TIP3     OH2      OT      -0.834000       15.9994           0
     28060 TIP3     1917     TIP3     H1       HT       0.417000       1.00800           0
     28061 TIP3     1917     TIP3     H2       HT       0.417000       1.00800           0
     28062 TIP3     1918     TIP3     OH2      OT      -0.834000       15.9994           0
     28063 TIP3     1918     TIP3     H1       HT       0.417000       1.00800           0
     28064 TIP3     1918     TIP3     H2       HT       0.417000       1.00800           0
     28065 TIP3     1919     TIP3     OH2      OT      -0.834000       15.9994           0
     28066 TIP3     1919     TIP3     H1       HT       0.417000       1.00800           0
     28067 TIP3     1919     TIP3     H2       HT       0.417000       1.00800           0
     28068 TIP3     1920     TIP3     OH2      OT      -0.834000       15.9994           0
     28069 TIP3     1920     TIP3     H1       HT       0.417000       1.00800           0
     28070 TIP3     1920     TIP3     H2       HT       0.417000       1.00800           0
     28071 TIP3     1921     TIP3     OH2      OT      -0.834000       15.9994           0
     28072 TIP3     1921     TIP3     H1       HT       0.417000       1.00800           0
     28073 TIP3     1921     TIP3     H2       HT       0.417000       1.00800           0
     28074 TIP3     1922     TIP3     OH2      OT      -0.834000       15.9994           0
     28075 TIP3     1922     TIP3     H1       HT       0.417000       1.00800           0
     28076 TIP3     1922     TIP3     H2       HT       0.417000       1.00800           0
     28077 TIP3     1923     TIP3     OH2      OT      -0.834000       15.9994           0
     28078 TIP3     1923     TIP3     H1       HT       0.417000       1.00800           0
     28079 TIP3     1923     TIP3     H2       HT       0.417000       1.00800           0
     28080 TIP3     1924     TIP3     OH2      OT      -0.834000       15.9994           0
     28081 TIP3     1924     TIP3     H1       HT       0.417000       1.00800           0
     28082 TIP3     1924     TIP3     H2       HT       0.417000       1.00800           0
     28083 TIP3     1925     TIP3     OH2      OT      -0.834000       15.9994           0
     28084 TIP3     1925     TIP3     H1       HT       0.417000       1.00800           0
     28085 TIP3     1925     TIP3     H2       HT       0.417000       1.00800           0
     28086 TIP3     1926     TIP3     OH2      OT      -0.834000       15.9994           0
     28087 TIP3     1926     TIP3     H1       HT       0.417000       1.00800           0
     28088 TIP3     1926     TIP3     H2       HT       0.417000       1.00800           0
     28089 TIP3     1927     TIP3     OH2      OT      -0.834000       15.9994           0
     28090 TIP3     1927     TIP3     H1       HT       0.417000       1.00800           0
     28091 TIP3     1927     TIP3     H2       HT       0.417000       1.00800           0
     28092 TIP3     1928     TIP3     OH2      OT      -0.834000       15.9994           0
     28093 TIP3     1928     TIP3     H1       HT       0.417000       1.00800           0
     28094 TIP3     1928     TIP3     H2       HT       0.417000       1.00800           0
     28095 TIP3     1929     TIP3     OH2      OT      -0.834000       15.9994           0
     28096 TIP3     1929     TIP3     H1       HT       0.417000       1.00800           0
     28097 TIP3     1929     TIP3     H2       HT       0.417000       1.00800           0
     28098 TIP3     1930     TIP3     OH2      OT      -0.834000       15.9994           0
     28099 TIP3     1930     TIP3     H1       HT       0.417000       1.00800           0
     28100 TIP3     1930     TIP3     H2       HT       0.417000       1.00800           0
     28101 TIP3     1931     TIP3     OH2      OT      -0.834000       15.9994           0
     28102 TIP3     1931     TIP3     H1       HT       0.417000       1.00800           0
     28103 TIP3     1931     TIP3     H2       HT       0.417000       1.00800           0
     28104 TIP3     1932     TIP3     OH2      OT      -0.834000       15.9994           0
     28105 TIP3     1932     TIP3     H1       HT       0.417000       1.00800           0
     28106 TIP3     1932     TIP3     H2       HT       0.417000       1.00800           0
     28107 TIP3     1933     TIP3     OH2      OT      -0.834000       15.9994           0
     28108 TIP3     1933     TIP3     H1       HT       0.417000       1.00800           0
     28109 TIP3     1933     TIP3     H2       HT       0.417000       1.00800           0
     28110 TIP3     1934     TIP3     OH2      OT      -0.834000       15.9994           0
     28111 TIP3     1934     TIP3     H1       HT       0.417000       1.00800           0
     28112 TIP3     1934     TIP3     H2       HT       0.417000       1.00800           0
     28113 TIP3     1935     TIP3     OH2      OT      -0.834000       15.9994           0
     28114 TIP3     1935     TIP3     H1       HT       0.417000       1.00800           0
     28115 TIP3     1935     TIP3     H2       HT       0.417000       1.00800           0
     28116 TIP3     1936     TIP3     OH2      OT      -0.834000       15.9994           0
     28117 TIP3     1936     TIP3     H1       HT       0.417000       1.00800           0
     28118 TIP3     1936     TIP3     H2       HT       0.417000       1.00800           0
     28119 TIP3     1937     TIP3     OH2      OT      -0.834000       15.9994           0
     28120 TIP3     1937     TIP3     H1       HT       0.417000       1.00800           0
     28121 TIP3     1937     TIP3     H2       HT       0.417000       1.00800           0
     28122 TIP3     1938     TIP3     OH2      OT      -0.834000       15.9994           0
     28123 TIP3     1938     TIP3     H1       HT       0.417000       1.00800           0
     28124 TIP3     1938     TIP3     H2       HT       0.417000       1.00800           0
     28125 TIP3     1939     TIP3     OH2      OT      -0.834000       15.9994           0
     28126 TIP3     1939     TIP3     H1       HT       0.417000       1.00800           0
     28127 TIP3     1939     TIP3     H2       HT       0.417000       1.00800           0
     28128 TIP3     1940     TIP3     OH2      OT      -0.834000       15.9994           0
     28129 TIP3     1940     TIP3     H1       HT       0.417000       1.00800           0
     28130 TIP3     1940     TIP3     H2       HT       0.417000       1.00800           0
     28131 TIP3     1941     TIP3     OH2      OT      -0.834000       15.9994           0
     28132 TIP3     1941     TIP3     H1       HT       0.417000       1.00800           0
     28133 TIP3     1941     TIP3     H2       HT       0.417000       1.00800           0
     28134 TIP3     1942     TIP3     OH2      OT      -0.834000       15.9994           0
     28135 TIP3     1942     TIP3     H1       HT       0.417000       1.00800           0
     28136 TIP3     1942     TIP3     H2       HT       0.417000       1.00800           0
     28137 TIP3     1943     TIP3     OH2      OT      -0.834000       15.9994           0
     28138 TIP3     1943     TIP3     H1       HT       0.417000       1.00800           0
     28139 TIP3     1943     TIP3     H2       HT       0.417000       1.00800           0
     28140 TIP3     1944     TIP3     OH2      OT      -0.834000       15.9994           0
     28141 TIP3     1944     TIP3     H1       HT       0.417000       1.00800           0
     28142 TIP3     1944     TIP3     H2       HT       0.417000       1.00800           0
     28143 TIP3     1945     TIP3     OH2      OT      -0.834000       15.9994           0
     28144 TIP3     1945     TIP3     H1       HT       0.417000       1.00800           0
     28145 TIP3     1945     TIP3     H2       HT       0.417000       1.00800           0
     28146 TIP3     1946     TIP3     OH2      OT      -0.834000       15.9994           0
     28147 TIP3     1946     TIP3     H1       HT       0.417000       1.00800           0
     28148 TIP3     1946     TIP3     H2       HT       0.417000       1.00800           0
     28149 TIP3     1947     TIP3     OH2      OT      -0.834000       15.9994           0
     28150 TIP3     1947     TIP3     H1       HT       0.417000       1.00800           0
     28151 TIP3     1947     TIP3     H2       HT       0.417000       1.00800           0
     28152 TIP3     1948     TIP3     OH2      OT      -0.834000       15.9994           0
     28153 TIP3     1948     TIP3     H1       HT       0.417000       1.00800           0
     28154 TIP3     1948     TIP3     H2       HT       0.417000       1.00800           0
     28155 TIP3     1949     TIP3     OH2      OT      -0.834000       15.9994           0
     28156 TIP3     1949     TIP3     H1       HT       0.417000       1.00800           0
     28157 TIP3     1949     TIP3     H2       HT       0.417000       1.00800           0
     28158 TIP3     1950     TIP3     OH2      OT      -0.834000       15.9994           0
     28159 TIP3     1950     TIP3     H1       HT       0.417000       1.00800           0
     28160 TIP3     1950     TIP3     H2       HT       0.417000       1.00800           0
     28161 TIP3     1951     TIP3     OH2      OT      -0.834000       15.9994           0
     28162 TIP3     1951     TIP3     H1       HT       0.417000       1.00800           0
     28163 TIP3     1951     TIP3     H2       HT       0.417000       1.00800           0
     28164 TIP3     1952     TIP3     OH2      OT      -0.834000       15.9994           0
     28165 TIP3     1952     TIP3     H1       HT       0.417000       1.00800           0
     28166 TIP3     1952     TIP3     H2       HT       0.417000       1.00800           0
     28167 TIP3     1953     TIP3     OH2      OT      -0.834000       15.9994           0
     28168 TIP3     1953     TIP3     H1       HT       0.417000       1.00800           0
     28169 TIP3     1953     TIP3     H2       HT       0.417000       1.00800           0
     28170 TIP3     1954     TIP3     OH2      OT      -0.834000       15.9994           0
     28171 TIP3     1954     TIP3     H1       HT       0.417000       1.00800           0
     28172 TIP3     1954     TIP3     H2       HT       0.417000       1.00800           0
     28173 TIP3     1955     TIP3     OH2      OT      -0.834000       15.9994           0
     28174 TIP3     1955     TIP3     H1       HT       0.417000       1.00800           0
     28175 TIP3     1955     TIP3     H2       HT       0.417000       1.00800           0
     28176 TIP3     1956     TIP3     OH2      OT      -0.834000       15.9994           0
     28177 TIP3     1956     TIP3     H1       HT       0.417000       1.00800           0
     28178 TIP3     1956     TIP3     H2       HT       0.417000       1.00800           0
     28179 TIP3     1957     TIP3     OH2      OT      -0.834000       15.9994           0
     28180 TIP3     1957     TIP3     H1       HT       0.417000       1.00800           0
     28181 TIP3     1957     TIP3     H2       HT       0.417000       1.00800           0
     28182 TIP3     1958     TIP3     OH2      OT      -0.834000       15.9994           0
     28183 TIP3     1958     TIP3     H1       HT       0.417000       1.00800           0
     28184 TIP3     1958     TIP3     H2       HT       0.417000       1.00800           0
     28185 TIP3     1959     TIP3     OH2      OT      -0.834000       15.9994           0
     28186 TIP3     1959     TIP3     H1       HT       0.417000       1.00800           0
     28187 TIP3     1959     TIP3     H2       HT       0.417000       1.00800           0
     28188 TIP3     1960     TIP3     OH2      OT      -0.834000       15.9994           0
     28189 TIP3     1960     TIP3     H1       HT       0.417000       1.00800           0
     28190 TIP3     1960     TIP3     H2       HT       0.417000       1.00800           0
     28191 TIP3     1961     TIP3     OH2      OT      -0.834000       15.9994           0
     28192 TIP3     1961     TIP3     H1       HT       0.417000       1.00800           0
     28193 TIP3     1961     TIP3     H2       HT       0.417000       1.00800           0
     28194 TIP3     1962     TIP3     OH2      OT      -0.834000       15.9994           0
     28195 TIP3     1962     TIP3     H1       HT       0.417000       1.00800           0
     28196 TIP3     1962     TIP3     H2       HT       0.417000       1.00800           0
     28197 TIP3     1963     TIP3     OH2      OT      -0.834000       15.9994           0
     28198 TIP3     1963     TIP3     H1       HT       0.417000       1.00800           0
     28199 TIP3     1963     TIP3     H2       HT       0.417000       1.00800           0
     28200 TIP3     1964     TIP3     OH2      OT      -0.834000       15.9994           0
     28201 TIP3     1964     TIP3     H1       HT       0.417000       1.00800           0
     28202 TIP3     1964     TIP3     H2       HT       0.417000       1.00800           0
     28203 TIP3     1965     TIP3     OH2      OT      -0.834000       15.9994           0
     28204 TIP3     1965     TIP3     H1       HT       0.417000       1.00800           0
     28205 TIP3     1965     TIP3     H2       HT       0.417000       1.00800           0
     28206 TIP3     1966     TIP3     OH2      OT      -0.834000       15.9994           0
     28207 TIP3     1966     TIP3     H1       HT       0.417000       1.00800           0
     28208 TIP3     1966     TIP3     H2       HT       0.417000       1.00800           0
     28209 TIP3     1967     TIP3     OH2      OT      -0.834000       15.9994           0
     28210 TIP3     1967     TIP3     H1       HT       0.417000       1.00800           0
     28211 TIP3     1967     TIP3     H2       HT       0.417000       1.00800           0
     28212 TIP3     1968     TIP3     OH2      OT      -0.834000       15.9994           0
     28213 TIP3     1968     TIP3     H1       HT       0.417000       1.00800           0
     28214 TIP3     1968     TIP3     H2       HT       0.417000       1.00800           0
     28215 TIP3     1969     TIP3     OH2      OT      -0.834000       15.9994           0
     28216 TIP3     1969     TIP3     H1       HT       0.417000       1.00800           0
     28217 TIP3     1969     TIP3     H2       HT       0.417000       1.00800           0
     28218 TIP3     1970     TIP3     OH2      OT      -0.834000       15.9994           0
     28219 TIP3     1970     TIP3     H1       HT       0.417000       1.00800           0
     28220 TIP3     1970     TIP3     H2       HT       0.417000       1.00800           0
     28221 TIP3     1971     TIP3     OH2      OT      -0.834000       15.9994           0
     28222 TIP3     1971     TIP3     H1       HT       0.417000       1.00800           0
     28223 TIP3     1971     TIP3     H2       HT       0.417000       1.00800           0
     28224 TIP3     1972     TIP3     OH2      OT      -0.834000       15.9994           0
     28225 TIP3     1972     TIP3     H1       HT       0.417000       1.00800           0
     28226 TIP3     1972     TIP3     H2       HT       0.417000       1.00800           0
     28227 TIP3     1973     TIP3     OH2      OT      -0.834000       15.9994           0
     28228 TIP3     1973     TIP3     H1       HT       0.417000       1.00800           0
     28229 TIP3     1973     TIP3     H2       HT       0.417000       1.00800           0
     28230 TIP3     1974     TIP3     OH2      OT      -0.834000       15.9994           0
     28231 TIP3     1974     TIP3     H1       HT       0.417000       1.00800           0
     28232 TIP3     1974     TIP3     H2       HT       0.417000       1.00800           0
     28233 TIP3     1975     TIP3     OH2      OT      -0.834000       15.9994           0
     28234 TIP3     1975     TIP3     H1       HT       0.417000       1.00800           0
     28235 TIP3     1975     TIP3     H2       HT       0.417000       1.00800           0
     28236 TIP3     1976     TIP3     OH2      OT      -0.834000       15.9994           0
     28237 TIP3     1976     TIP3     H1       HT       0.417000       1.00800           0
     28238 TIP3     1976     TIP3     H2       HT       0.417000       1.00800           0
     28239 TIP3     1977     TIP3     OH2      OT      -0.834000       15.9994           0
     28240 TIP3     1977     TIP3     H1       HT       0.417000       1.00800           0
     28241 TIP3     1977     TIP3     H2       HT       0.417000       1.00800           0
     28242 TIP3     1978     TIP3     OH2      OT      -0.834000       15.9994           0
     28243 TIP3     1978     TIP3     H1       HT       0.417000       1.00800           0
     28244 TIP3     1978     TIP3     H2       HT       0.417000       1.00800           0
     28245 TIP3     1979     TIP3     OH2      OT      -0.834000       15.9994           0
     28246 TIP3     1979     TIP3     H1       HT       0.417000       1.00800           0
     28247 TIP3     1979     TIP3     H2       HT       0.417000       1.00800           0
     28248 TIP3     1980     TIP3     OH2      OT      -0.834000       15.9994           0
     28249 TIP3     1980     TIP3     H1       HT       0.417000       1.00800           0
     28250 TIP3     1980     TIP3     H2       HT       0.417000       1.00800           0
     28251 TIP3     1981     TIP3     OH2      OT      -0.834000       15.9994           0
     28252 TIP3     1981     TIP3     H1       HT       0.417000       1.00800           0
     28253 TIP3     1981     TIP3     H2       HT       0.417000       1.00800           0
     28254 TIP3     1982     TIP3     OH2      OT      -0.834000       15.9994           0
     28255 TIP3     1982     TIP3     H1       HT       0.417000       1.00800           0
     28256 TIP3     1982     TIP3     H2       HT       0.417000       1.00800           0
     28257 TIP3     1983     TIP3     OH2      OT      -0.834000       15.9994           0
     28258 TIP3     1983     TIP3     H1       HT       0.417000       1.00800           0
     28259 TIP3     1983     TIP3     H2       HT       0.417000       1.00800           0
     28260 TIP3     1984     TIP3     OH2      OT      -0.834000       15.9994           0
     28261 TIP3     1984     TIP3     H1       HT       0.417000       1.00800           0
     28262 TIP3     1984     TIP3     H2       HT       0.417000       1.00800           0
     28263 TIP3     1985     TIP3     OH2      OT      -0.834000       15.9994           0
     28264 TIP3     1985     TIP3     H1       HT       0.417000       1.00800           0
     28265 TIP3     1985     TIP3     H2       HT       0.417000       1.00800           0
     28266 TIP3     1986     TIP3     OH2      OT      -0.834000       15.9994           0
     28267 TIP3     1986     TIP3     H1       HT       0.417000       1.00800           0
     28268 TIP3     1986     TIP3     H2       HT       0.417000       1.00800           0
     28269 TIP3     1987     TIP3     OH2      OT      -0.834000       15.9994           0
     28270 TIP3     1987     TIP3     H1       HT       0.417000       1.00800           0
     28271 TIP3     1987     TIP3     H2       HT       0.417000       1.00800           0
     28272 TIP3     1988     TIP3     OH2      OT      -0.834000       15.9994           0
     28273 TIP3     1988     TIP3     H1       HT       0.417000       1.00800           0
     28274 TIP3     1988     TIP3     H2       HT       0.417000       1.00800           0
     28275 TIP3     1989     TIP3     OH2      OT      -0.834000       15.9994           0
     28276 TIP3     1989     TIP3     H1       HT       0.417000       1.00800           0
     28277 TIP3     1989     TIP3     H2       HT       0.417000       1.00800           0
     28278 TIP3     1990     TIP3     OH2      OT      -0.834000       15.9994           0
     28279 TIP3     1990     TIP3     H1       HT       0.417000       1.00800           0
     28280 TIP3     1990     TIP3     H2       HT       0.417000       1.00800           0
     28281 TIP3     1991     TIP3     OH2      OT      -0.834000       15.9994           0
     28282 TIP3     1991     TIP3     H1       HT       0.417000       1.00800           0
     28283 TIP3     1991     TIP3     H2       HT       0.417000       1.00800           0
     28284 TIP3     1992     TIP3     OH2      OT      -0.834000       15.9994           0
     28285 TIP3     1992     TIP3     H1       HT       0.417000       1.00800           0
     28286 TIP3     1992     TIP3     H2       HT       0.417000       1.00800           0
     28287 TIP3     1993     TIP3     OH2      OT      -0.834000       15.9994           0
     28288 TIP3     1993     TIP3     H1       HT       0.417000       1.00800           0
     28289 TIP3     1993     TIP3     H2       HT       0.417000       1.00800           0
     28290 TIP3     1994     TIP3     OH2      OT      -0.834000       15.9994           0
     28291 TIP3     1994     TIP3     H1       HT       0.417000       1.00800           0
     28292 TIP3     1994     TIP3     H2       HT       0.417000       1.00800           0
     28293 TIP3     1995     TIP3     OH2      OT      -0.834000       15.9994           0
     28294 TIP3     1995     TIP3     H1       HT       0.417000       1.00800           0
     28295 TIP3     1995     TIP3     H2       HT       0.417000       1.00800           0
     28296 TIP3     1996     TIP3     OH2      OT      -0.834000       15.9994           0
     28297 TIP3     1996     TIP3     H1       HT       0.417000       1.00800           0
     28298 TIP3     1996     TIP3     H2       HT       0.417000       1.00800           0
     28299 TIP3     1997     TIP3     OH2      OT      -0.834000       15.9994           0
     28300 TIP3     1997     TIP3     H1       HT       0.417000       1.00800           0
     28301 TIP3     1997     TIP3     H2       HT       0.417000       1.00800           0
     28302 TIP3     1998     TIP3     OH2      OT      -0.834000       15.9994           0
     28303 TIP3     1998     TIP3     H1       HT       0.417000       1.00800           0
     28304 TIP3     1998     TIP3     H2       HT       0.417000       1.00800           0
     28305 TIP3     1999     TIP3     OH2      OT      -0.834000       15.9994           0
     28306 TIP3     1999     TIP3     H1       HT       0.417000       1.00800           0
     28307 TIP3     1999     TIP3     H2       HT       0.417000       1.00800           0
     28308 TIP3     2000     TIP3     OH2      OT      -0.834000       15.9994           0
     28309 TIP3     2000     TIP3     H1       HT       0.417000       1.00800           0
     28310 TIP3     2000     TIP3     H2       HT       0.417000       1.00800           0
     28311 TIP3     2001     TIP3     OH2      OT      -0.834000       15.9994           0
     28312 TIP3     2001     TIP3     H1       HT       0.417000       1.00800           0
     28313 TIP3     2001     TIP3     H2       HT       0.417000       1.00800           0
     28314 TIP3     2002     TIP3     OH2      OT      -0.834000       15.9994           0
     28315 TIP3     2002     TIP3     H1       HT       0.417000       1.00800           0
     28316 TIP3     2002     TIP3     H2       HT       0.417000       1.00800           0
     28317 TIP3     2003     TIP3     OH2      OT      -0.834000       15.9994           0
     28318 TIP3     2003     TIP3     H1       HT       0.417000       1.00800           0
     28319 TIP3     2003     TIP3     H2       HT       0.417000       1.00800           0
     28320 TIP3     2004     TIP3     OH2      OT      -0.834000       15.9994           0
     28321 TIP3     2004     TIP3     H1       HT       0.417000       1.00800           0
     28322 TIP3     2004     TIP3     H2       HT       0.417000       1.00800           0
     28323 TIP3     2005     TIP3     OH2      OT      -0.834000       15.9994           0
     28324 TIP3     2005     TIP3     H1       HT       0.417000       1.00800           0
     28325 TIP3     2005     TIP3     H2       HT       0.417000       1.00800           0
     28326 TIP3     2006     TIP3     OH2      OT      -0.834000       15.9994           0
     28327 TIP3     2006     TIP3     H1       HT       0.417000       1.00800           0
     28328 TIP3     2006     TIP3     H2       HT       0.417000       1.00800           0
     28329 TIP3     2007     TIP3     OH2      OT      -0.834000       15.9994           0
     28330 TIP3     2007     TIP3     H1       HT       0.417000       1.00800           0
     28331 TIP3     2007     TIP3     H2       HT       0.417000       1.00800           0
     28332 TIP3     2008     TIP3     OH2      OT      -0.834000       15.9994           0
     28333 TIP3     2008     TIP3     H1       HT       0.417000       1.00800           0
     28334 TIP3     2008     TIP3     H2       HT       0.417000       1.00800           0
     28335 TIP3     2009     TIP3     OH2      OT      -0.834000       15.9994           0
     28336 TIP3     2009     TIP3     H1       HT       0.417000       1.00800           0
     28337 TIP3     2009     TIP3     H2       HT       0.417000       1.00800           0
     28338 TIP3     2010     TIP3     OH2      OT      -0.834000       15.9994           0
     28339 TIP3     2010     TIP3     H1       HT       0.417000       1.00800           0
     28340 TIP3     2010     TIP3     H2       HT       0.417000       1.00800           0
     28341 TIP3     2011     TIP3     OH2      OT      -0.834000       15.9994           0
     28342 TIP3     2011     TIP3     H1       HT       0.417000       1.00800           0
     28343 TIP3     2011     TIP3     H2       HT       0.417000       1.00800           0
     28344 TIP3     2012     TIP3     OH2      OT      -0.834000       15.9994           0
     28345 TIP3     2012     TIP3     H1       HT       0.417000       1.00800           0
     28346 TIP3     2012     TIP3     H2       HT       0.417000       1.00800           0
     28347 TIP3     2013     TIP3     OH2      OT      -0.834000       15.9994           0
     28348 TIP3     2013     TIP3     H1       HT       0.417000       1.00800           0
     28349 TIP3     2013     TIP3     H2       HT       0.417000       1.00800           0
     28350 TIP3     2014     TIP3     OH2      OT      -0.834000       15.9994           0
     28351 TIP3     2014     TIP3     H1       HT       0.417000       1.00800           0
     28352 TIP3     2014     TIP3     H2       HT       0.417000       1.00800           0
     28353 TIP3     2015     TIP3     OH2      OT      -0.834000       15.9994           0
     28354 TIP3     2015     TIP3     H1       HT       0.417000       1.00800           0
     28355 TIP3     2015     TIP3     H2       HT       0.417000       1.00800           0
     28356 TIP3     2016     TIP3     OH2      OT      -0.834000       15.9994           0
     28357 TIP3     2016     TIP3     H1       HT       0.417000       1.00800           0
     28358 TIP3     2016     TIP3     H2       HT       0.417000       1.00800           0
     28359 TIP3     2017     TIP3     OH2      OT      -0.834000       15.9994           0
     28360 TIP3     2017     TIP3     H1       HT       0.417000       1.00800           0
     28361 TIP3     2017     TIP3     H2       HT       0.417000       1.00800           0
     28362 TIP3     2018     TIP3     OH2      OT      -0.834000       15.9994           0
     28363 TIP3     2018     TIP3     H1       HT       0.417000       1.00800           0
     28364 TIP3     2018     TIP3     H2       HT       0.417000       1.00800           0
     28365 TIP3     2019     TIP3     OH2      OT      -0.834000       15.9994           0
     28366 TIP3     2019     TIP3     H1       HT       0.417000       1.00800           0
     28367 TIP3     2019     TIP3     H2       HT       0.417000       1.00800           0
     28368 TIP3     2020     TIP3     OH2      OT      -0.834000       15.9994           0
     28369 TIP3     2020     TIP3     H1       HT       0.417000       1.00800           0
     28370 TIP3     2020     TIP3     H2       HT       0.417000       1.00800           0
     28371 TIP3     2021     TIP3     OH2      OT      -0.834000       15.9994           0
     28372 TIP3     2021     TIP3     H1       HT       0.417000       1.00800           0
     28373 TIP3     2021     TIP3     H2       HT       0.417000       1.00800           0
     28374 TIP3     2022     TIP3     OH2      OT      -0.834000       15.9994           0
     28375 TIP3     2022     TIP3     H1       HT       0.417000       1.00800           0
     28376 TIP3     2022     TIP3     H2       HT       0.417000       1.00800           0
     28377 TIP3     2023     TIP3     OH2      OT      -0.834000       15.9994           0
     28378 TIP3     2023     TIP3     H1       HT       0.417000       1.00800           0
     28379 TIP3     2023     TIP3     H2       HT       0.417000       1.00800           0
     28380 TIP3     2024     TIP3     OH2      OT      -0.834000       15.9994           0
     28381 TIP3     2024     TIP3     H1       HT       0.417000       1.00800           0
     28382 TIP3     2024     TIP3     H2       HT       0.417000       1.00800           0
     28383 TIP3     2025     TIP3     OH2      OT      -0.834000       15.9994           0
     28384 TIP3     2025     TIP3     H1       HT       0.417000       1.00800           0
     28385 TIP3     2025     TIP3     H2       HT       0.417000       1.00800           0
     28386 TIP3     2026     TIP3     OH2      OT      -0.834000       15.9994           0
     28387 TIP3     2026     TIP3     H1       HT       0.417000       1.00800           0
     28388 TIP3     2026     TIP3     H2       HT       0.417000       1.00800           0
     28389 TIP3     2027     TIP3     OH2      OT      -0.834000       15.9994           0
     28390 TIP3     2027     TIP3     H1       HT       0.417000       1.00800           0
     28391 TIP3     2027     TIP3     H2       HT       0.417000       1.00800           0
     28392 TIP3     2028     TIP3     OH2      OT      -0.834000       15.9994           0
     28393 TIP3     2028     TIP3     H1       HT       0.417000       1.00800           0
     28394 TIP3     2028     TIP3     H2       HT       0.417000       1.00800           0
     28395 TIP3     2029     TIP3     OH2      OT      -0.834000       15.9994           0
     28396 TIP3     2029     TIP3     H1       HT       0.417000       1.00800           0
     28397 TIP3     2029     TIP3     H2       HT       0.417000       1.00800           0
     28398 TIP3     2030     TIP3     OH2      OT      -0.834000       15.9994           0
     28399 TIP3     2030     TIP3     H1       HT       0.417000       1.00800           0
     28400 TIP3     2030     TIP3     H2       HT       0.417000       1.00800           0
     28401 TIP3     2031     TIP3     OH2      OT      -0.834000       15.9994           0
     28402 TIP3     2031     TIP3     H1       HT       0.417000       1.00800           0
     28403 TIP3     2031     TIP3     H2       HT       0.417000       1.00800           0
     28404 TIP3     2032     TIP3     OH2      OT      -0.834000       15.9994           0
     28405 TIP3     2032     TIP3     H1       HT       0.417000       1.00800           0
     28406 TIP3     2032     TIP3     H2       HT       0.417000       1.00800           0
     28407 TIP3     2033     TIP3     OH2      OT      -0.834000       15.9994           0
     28408 TIP3     2033     TIP3     H1       HT       0.417000       1.00800           0
     28409 TIP3     2033     TIP3     H2       HT       0.417000       1.00800           0
     28410 TIP3     2034     TIP3     OH2      OT      -0.834000       15.9994           0
     28411 TIP3     2034     TIP3     H1       HT       0.417000       1.00800           0
     28412 TIP3     2034     TIP3     H2       HT       0.417000       1.00800           0
     28413 TIP3     2035     TIP3     OH2      OT      -0.834000       15.9994           0
     28414 TIP3     2035     TIP3     H1       HT       0.417000       1.00800           0
     28415 TIP3     2035     TIP3     H2       HT       0.417000       1.00800           0
     28416 TIP3     2036     TIP3     OH2      OT      -0.834000       15.9994           0
     28417 TIP3     2036     TIP3     H1       HT       0.417000       1.00800           0
     28418 TIP3     2036     TIP3     H2       HT       0.417000       1.00800           0
     28419 TIP3     2037     TIP3     OH2      OT      -0.834000       15.9994           0
     28420 TIP3     2037     TIP3     H1       HT       0.417000       1.00800           0
     28421 TIP3     2037     TIP3     H2       HT       0.417000       1.00800           0
     28422 TIP3     2038     TIP3     OH2      OT      -0.834000       15.9994           0
     28423 TIP3     2038     TIP3     H1       HT       0.417000       1.00800           0
     28424 TIP3     2038     TIP3     H2       HT       0.417000       1.00800           0
     28425 TIP3     2039     TIP3     OH2      OT      -0.834000       15.9994           0
     28426 TIP3     2039     TIP3     H1       HT       0.417000       1.00800           0
     28427 TIP3     2039     TIP3     H2       HT       0.417000       1.00800           0
     28428 TIP3     2040     TIP3     OH2      OT      -0.834000       15.9994           0
     28429 TIP3     2040     TIP3     H1       HT       0.417000       1.00800           0
     28430 TIP3     2040     TIP3     H2       HT       0.417000       1.00800           0
     28431 TIP3     2041     TIP3     OH2      OT      -0.834000       15.9994           0
     28432 TIP3     2041     TIP3     H1       HT       0.417000       1.00800           0
     28433 TIP3     2041     TIP3     H2       HT       0.417000       1.00800           0
     28434 TIP3     2042     TIP3     OH2      OT      -0.834000       15.9994           0
     28435 TIP3     2042     TIP3     H1       HT       0.417000       1.00800           0
     28436 TIP3     2042     TIP3     H2       HT       0.417000       1.00800           0
     28437 TIP3     2043     TIP3     OH2      OT      -0.834000       15.9994           0
     28438 TIP3     2043     TIP3     H1       HT       0.417000       1.00800           0
     28439 TIP3     2043     TIP3     H2       HT       0.417000       1.00800           0
     28440 TIP3     2044     TIP3     OH2      OT      -0.834000       15.9994           0
     28441 TIP3     2044     TIP3     H1       HT       0.417000       1.00800           0
     28442 TIP3     2044     TIP3     H2       HT       0.417000       1.00800           0
     28443 TIP3     2045     TIP3     OH2      OT      -0.834000       15.9994           0
     28444 TIP3     2045     TIP3     H1       HT       0.417000       1.00800           0
     28445 TIP3     2045     TIP3     H2       HT       0.417000       1.00800           0
     28446 TIP3     2046     TIP3     OH2      OT      -0.834000       15.9994           0
     28447 TIP3     2046     TIP3     H1       HT       0.417000       1.00800           0
     28448 TIP3     2046     TIP3     H2       HT       0.417000       1.00800           0
     28449 TIP3     2047     TIP3     OH2      OT      -0.834000       15.9994           0
     28450 TIP3     2047     TIP3     H1       HT       0.417000       1.00800           0
     28451 TIP3     2047     TIP3     H2       HT       0.417000       1.00800           0
     28452 TIP3     2048     TIP3     OH2      OT      -0.834000       15.9994           0
     28453 TIP3     2048     TIP3     H1       HT       0.417000       1.00800           0
     28454 TIP3     2048     TIP3     H2       HT       0.417000       1.00800           0
     28455 TIP3     2049     TIP3     OH2      OT      -0.834000       15.9994           0
     28456 TIP3     2049     TIP3     H1       HT       0.417000       1.00800           0
     28457 TIP3     2049     TIP3     H2       HT       0.417000       1.00800           0
     28458 TIP3     2050     TIP3     OH2      OT      -0.834000       15.9994           0
     28459 TIP3     2050     TIP3     H1       HT       0.417000       1.00800           0
     28460 TIP3     2050     TIP3     H2       HT       0.417000       1.00800           0
     28461 TIP3     2051     TIP3     OH2      OT      -0.834000       15.9994           0
     28462 TIP3     2051     TIP3     H1       HT       0.417000       1.00800           0
     28463 TIP3     2051     TIP3     H2       HT       0.417000       1.00800           0
     28464 TIP3     2052     TIP3     OH2      OT      -0.834000       15.9994           0
     28465 TIP3     2052     TIP3     H1       HT       0.417000       1.00800           0
     28466 TIP3     2052     TIP3     H2       HT       0.417000       1.00800           0
     28467 TIP3     2053     TIP3     OH2      OT      -0.834000       15.9994           0
     28468 TIP3     2053     TIP3     H1       HT       0.417000       1.00800           0
     28469 TIP3     2053     TIP3     H2       HT       0.417000       1.00800           0
     28470 TIP3     2054     TIP3     OH2      OT      -0.834000       15.9994           0
     28471 TIP3     2054     TIP3     H1       HT       0.417000       1.00800           0
     28472 TIP3     2054     TIP3     H2       HT       0.417000       1.00800           0
     28473 TIP3     2055     TIP3     OH2      OT      -0.834000       15.9994           0
     28474 TIP3     2055     TIP3     H1       HT       0.417000       1.00800           0
     28475 TIP3     2055     TIP3     H2       HT       0.417000       1.00800           0
     28476 TIP3     2056     TIP3     OH2      OT      -0.834000       15.9994           0
     28477 TIP3     2056     TIP3     H1       HT       0.417000       1.00800           0
     28478 TIP3     2056     TIP3     H2       HT       0.417000       1.00800           0
     28479 TIP3     2057     TIP3     OH2      OT      -0.834000       15.9994           0
     28480 TIP3     2057     TIP3     H1       HT       0.417000       1.00800           0
     28481 TIP3     2057     TIP3     H2       HT       0.417000       1.00800           0
     28482 TIP3     2058     TIP3     OH2      OT      -0.834000       15.9994           0
     28483 TIP3     2058     TIP3     H1       HT       0.417000       1.00800           0
     28484 TIP3     2058     TIP3     H2       HT       0.417000       1.00800           0
     28485 TIP3     2059     TIP3     OH2      OT      -0.834000       15.9994           0
     28486 TIP3     2059     TIP3     H1       HT       0.417000       1.00800           0
     28487 TIP3     2059     TIP3     H2       HT       0.417000       1.00800           0
     28488 TIP3     2060     TIP3     OH2      OT      -0.834000       15.9994           0
     28489 TIP3     2060     TIP3     H1       HT       0.417000       1.00800           0
     28490 TIP3     2060     TIP3     H2       HT       0.417000       1.00800           0
     28491 TIP3     2061     TIP3     OH2      OT      -0.834000       15.9994           0
     28492 TIP3     2061     TIP3     H1       HT       0.417000       1.00800           0
     28493 TIP3     2061     TIP3     H2       HT       0.417000       1.00800           0
     28494 TIP3     2062     TIP3     OH2      OT      -0.834000       15.9994           0
     28495 TIP3     2062     TIP3     H1       HT       0.417000       1.00800           0
     28496 TIP3     2062     TIP3     H2       HT       0.417000       1.00800           0
     28497 TIP3     2063     TIP3     OH2      OT      -0.834000       15.9994           0
     28498 TIP3     2063     TIP3     H1       HT       0.417000       1.00800           0
     28499 TIP3     2063     TIP3     H2       HT       0.417000       1.00800           0
     28500 TIP3     2064     TIP3     OH2      OT      -0.834000       15.9994           0
     28501 TIP3     2064     TIP3     H1       HT       0.417000       1.00800           0
     28502 TIP3     2064     TIP3     H2       HT       0.417000       1.00800           0
     28503 TIP3     2065     TIP3     OH2      OT      -0.834000       15.9994           0
     28504 TIP3     2065     TIP3     H1       HT       0.417000       1.00800           0
     28505 TIP3     2065     TIP3     H2       HT       0.417000       1.00800           0
     28506 TIP3     2066     TIP3     OH2      OT      -0.834000       15.9994           0
     28507 TIP3     2066     TIP3     H1       HT       0.417000       1.00800           0
     28508 TIP3     2066     TIP3     H2       HT       0.417000       1.00800           0
     28509 TIP3     2067     TIP3     OH2      OT      -0.834000       15.9994           0
     28510 TIP3     2067     TIP3     H1       HT       0.417000       1.00800           0
     28511 TIP3     2067     TIP3     H2       HT       0.417000       1.00800           0
     28512 TIP3     2068     TIP3     OH2      OT      -0.834000       15.9994           0
     28513 TIP3     2068     TIP3     H1       HT       0.417000       1.00800           0
     28514 TIP3     2068     TIP3     H2       HT       0.417000       1.00800           0
     28515 TIP3     2069     TIP3     OH2      OT      -0.834000       15.9994           0
     28516 TIP3     2069     TIP3     H1       HT       0.417000       1.00800           0
     28517 TIP3     2069     TIP3     H2       HT       0.417000       1.00800           0
     28518 TIP3     2070     TIP3     OH2      OT      -0.834000       15.9994           0
     28519 TIP3     2070     TIP3     H1       HT       0.417000       1.00800           0
     28520 TIP3     2070     TIP3     H2       HT       0.417000       1.00800           0
     28521 TIP3     2071     TIP3     OH2      OT      -0.834000       15.9994           0
     28522 TIP3     2071     TIP3     H1       HT       0.417000       1.00800           0
     28523 TIP3     2071     TIP3     H2       HT       0.417000       1.00800           0
     28524 TIP3     2072     TIP3     OH2      OT      -0.834000       15.9994           0
     28525 TIP3     2072     TIP3     H1       HT       0.417000       1.00800           0
     28526 TIP3     2072     TIP3     H2       HT       0.417000       1.00800           0
     28527 TIP3     2073     TIP3     OH2      OT      -0.834000       15.9994           0
     28528 TIP3     2073     TIP3     H1       HT       0.417000       1.00800           0
     28529 TIP3     2073     TIP3     H2       HT       0.417000       1.00800           0
     28530 TIP3     2074     TIP3     OH2      OT      -0.834000       15.9994           0
     28531 TIP3     2074     TIP3     H1       HT       0.417000       1.00800           0
     28532 TIP3     2074     TIP3     H2       HT       0.417000       1.00800           0
     28533 TIP3     2075     TIP3     OH2      OT      -0.834000       15.9994           0
     28534 TIP3     2075     TIP3     H1       HT       0.417000       1.00800           0
     28535 TIP3     2075     TIP3     H2       HT       0.417000       1.00800           0
     28536 TIP3     2076     TIP3     OH2      OT      -0.834000       15.9994           0
     28537 TIP3     2076     TIP3     H1       HT       0.417000       1.00800           0
     28538 TIP3     2076     TIP3     H2       HT       0.417000       1.00800           0
     28539 TIP3     2077     TIP3     OH2      OT      -0.834000       15.9994           0
     28540 TIP3     2077     TIP3     H1       HT       0.417000       1.00800           0
     28541 TIP3     2077     TIP3     H2       HT       0.417000       1.00800           0
     28542 TIP3     2078     TIP3     OH2      OT      -0.834000       15.9994           0
     28543 TIP3     2078     TIP3     H1       HT       0.417000       1.00800           0
     28544 TIP3     2078     TIP3     H2       HT       0.417000       1.00800           0
     28545 TIP3     2079     TIP3     OH2      OT      -0.834000       15.9994           0
     28546 TIP3     2079     TIP3     H1       HT       0.417000       1.00800           0
     28547 TIP3     2079     TIP3     H2       HT       0.417000       1.00800           0
     28548 TIP3     2080     TIP3     OH2      OT      -0.834000       15.9994           0
     28549 TIP3     2080     TIP3     H1       HT       0.417000       1.00800           0
     28550 TIP3     2080     TIP3     H2       HT       0.417000       1.00800           0
     28551 TIP3     2081     TIP3     OH2      OT      -0.834000       15.9994           0
     28552 TIP3     2081     TIP3     H1       HT       0.417000       1.00800           0
     28553 TIP3     2081     TIP3     H2       HT       0.417000       1.00800           0
     28554 TIP3     2082     TIP3     OH2      OT      -0.834000       15.9994           0
     28555 TIP3     2082     TIP3     H1       HT       0.417000       1.00800           0
     28556 TIP3     2082     TIP3     H2       HT       0.417000       1.00800           0
     28557 TIP3     2083     TIP3     OH2      OT      -0.834000       15.9994           0
     28558 TIP3     2083     TIP3     H1       HT       0.417000       1.00800           0
     28559 TIP3     2083     TIP3     H2       HT       0.417000       1.00800           0
     28560 TIP3     2084     TIP3     OH2      OT      -0.834000       15.9994           0
     28561 TIP3     2084     TIP3     H1       HT       0.417000       1.00800           0
     28562 TIP3     2084     TIP3     H2       HT       0.417000       1.00800           0
     28563 TIP3     2085     TIP3     OH2      OT      -0.834000       15.9994           0
     28564 TIP3     2085     TIP3     H1       HT       0.417000       1.00800           0
     28565 TIP3     2085     TIP3     H2       HT       0.417000       1.00800           0
     28566 TIP3     2086     TIP3     OH2      OT      -0.834000       15.9994           0
     28567 TIP3     2086     TIP3     H1       HT       0.417000       1.00800           0
     28568 TIP3     2086     TIP3     H2       HT       0.417000       1.00800           0
     28569 TIP3     2087     TIP3     OH2      OT      -0.834000       15.9994           0
     28570 TIP3     2087     TIP3     H1       HT       0.417000       1.00800           0
     28571 TIP3     2087     TIP3     H2       HT       0.417000       1.00800           0
     28572 TIP3     2088     TIP3     OH2      OT      -0.834000       15.9994           0
     28573 TIP3     2088     TIP3     H1       HT       0.417000       1.00800           0
     28574 TIP3     2088     TIP3     H2       HT       0.417000       1.00800           0
     28575 TIP3     2089     TIP3     OH2      OT      -0.834000       15.9994           0
     28576 TIP3     2089     TIP3     H1       HT       0.417000       1.00800           0
     28577 TIP3     2089     TIP3     H2       HT       0.417000       1.00800           0
     28578 TIP3     2090     TIP3     OH2      OT      -0.834000       15.9994           0
     28579 TIP3     2090     TIP3     H1       HT       0.417000       1.00800           0
     28580 TIP3     2090     TIP3     H2       HT       0.417000       1.00800           0
     28581 TIP3     2091     TIP3     OH2      OT      -0.834000       15.9994           0
     28582 TIP3     2091     TIP3     H1       HT       0.417000       1.00800           0
     28583 TIP3     2091     TIP3     H2       HT       0.417000       1.00800           0
     28584 TIP3     2092     TIP3     OH2      OT      -0.834000       15.9994           0
     28585 TIP3     2092     TIP3     H1       HT       0.417000       1.00800           0
     28586 TIP3     2092     TIP3     H2       HT       0.417000       1.00800           0
     28587 TIP3     2093     TIP3     OH2      OT      -0.834000       15.9994           0
     28588 TIP3     2093     TIP3     H1       HT       0.417000       1.00800           0
     28589 TIP3     2093     TIP3     H2       HT       0.417000       1.00800           0
     28590 TIP3     2094     TIP3     OH2      OT      -0.834000       15.9994           0
     28591 TIP3     2094     TIP3     H1       HT       0.417000       1.00800           0
     28592 TIP3     2094     TIP3     H2       HT       0.417000       1.00800           0
     28593 TIP3     2095     TIP3     OH2      OT      -0.834000       15.9994           0
     28594 TIP3     2095     TIP3     H1       HT       0.417000       1.00800           0
     28595 TIP3     2095     TIP3     H2       HT       0.417000       1.00800           0
     28596 TIP3     2096     TIP3     OH2      OT      -0.834000       15.9994           0
     28597 TIP3     2096     TIP3     H1       HT       0.417000       1.00800           0
     28598 TIP3     2096     TIP3     H2       HT       0.417000       1.00800           0
     28599 TIP3     2097     TIP3     OH2      OT      -0.834000       15.9994           0
     28600 TIP3     2097     TIP3     H1       HT       0.417000       1.00800           0
     28601 TIP3     2097     TIP3     H2       HT       0.417000       1.00800           0
     28602 TIP3     2098     TIP3     OH2      OT      -0.834000       15.9994           0
     28603 TIP3     2098     TIP3     H1       HT       0.417000       1.00800           0
     28604 TIP3     2098     TIP3     H2       HT       0.417000       1.00800           0
     28605 TIP3     2099     TIP3     OH2      OT      -0.834000       15.9994           0
     28606 TIP3     2099     TIP3     H1       HT       0.417000       1.00800           0
     28607 TIP3     2099     TIP3     H2       HT       0.417000       1.00800           0
     28608 TIP3     2100     TIP3     OH2      OT      -0.834000       15.9994           0
     28609 TIP3     2100     TIP3     H1       HT       0.417000       1.00800           0
     28610 TIP3     2100     TIP3     H2       HT       0.417000       1.00800           0
     28611 TIP3     2101     TIP3     OH2      OT      -0.834000       15.9994           0
     28612 TIP3     2101     TIP3     H1       HT       0.417000       1.00800           0
     28613 TIP3     2101     TIP3     H2       HT       0.417000       1.00800           0
     28614 TIP3     2102     TIP3     OH2      OT      -0.834000       15.9994           0
     28615 TIP3     2102     TIP3     H1       HT       0.417000       1.00800           0
     28616 TIP3     2102     TIP3     H2       HT       0.417000       1.00800           0
     28617 TIP3     2103     TIP3     OH2      OT      -0.834000       15.9994           0
     28618 TIP3     2103     TIP3     H1       HT       0.417000       1.00800           0
     28619 TIP3     2103     TIP3     H2       HT       0.417000       1.00800           0
     28620 TIP3     2104     TIP3     OH2      OT      -0.834000       15.9994           0
     28621 TIP3     2104     TIP3     H1       HT       0.417000       1.00800           0
     28622 TIP3     2104     TIP3     H2       HT       0.417000       1.00800           0
     28623 TIP3     2105     TIP3     OH2      OT      -0.834000       15.9994           0
     28624 TIP3     2105     TIP3     H1       HT       0.417000       1.00800           0
     28625 TIP3     2105     TIP3     H2       HT       0.417000       1.00800           0
     28626 TIP3     2106     TIP3     OH2      OT      -0.834000       15.9994           0
     28627 TIP3     2106     TIP3     H1       HT       0.417000       1.00800           0
     28628 TIP3     2106     TIP3     H2       HT       0.417000       1.00800           0
     28629 TIP3     2107     TIP3     OH2      OT      -0.834000       15.9994           0
     28630 TIP3     2107     TIP3     H1       HT       0.417000       1.00800           0
     28631 TIP3     2107     TIP3     H2       HT       0.417000       1.00800           0
     28632 TIP3     2108     TIP3     OH2      OT      -0.834000       15.9994           0
     28633 TIP3     2108     TIP3     H1       HT       0.417000       1.00800           0
     28634 TIP3     2108     TIP3     H2       HT       0.417000       1.00800           0
     28635 TIP3     2109     TIP3     OH2      OT      -0.834000       15.9994           0
     28636 TIP3     2109     TIP3     H1       HT       0.417000       1.00800           0
     28637 TIP3     2109     TIP3     H2       HT       0.417000       1.00800           0
     28638 TIP3     2110     TIP3     OH2      OT      -0.834000       15.9994           0
     28639 TIP3     2110     TIP3     H1       HT       0.417000       1.00800           0
     28640 TIP3     2110     TIP3     H2       HT       0.417000       1.00800           0
     28641 TIP3     2111     TIP3     OH2      OT      -0.834000       15.9994           0
     28642 TIP3     2111     TIP3     H1       HT       0.417000       1.00800           0
     28643 TIP3     2111     TIP3     H2       HT       0.417000       1.00800           0
     28644 TIP3     2112     TIP3     OH2      OT      -0.834000       15.9994           0
     28645 TIP3     2112     TIP3     H1       HT       0.417000       1.00800           0
     28646 TIP3     2112     TIP3     H2       HT       0.417000       1.00800           0
     28647 TIP3     2113     TIP3     OH2      OT      -0.834000       15.9994           0
     28648 TIP3     2113     TIP3     H1       HT       0.417000       1.00800           0
     28649 TIP3     2113     TIP3     H2       HT       0.417000       1.00800           0
     28650 TIP3     2114     TIP3     OH2      OT      -0.834000       15.9994           0
     28651 TIP3     2114     TIP3     H1       HT       0.417000       1.00800           0
     28652 TIP3     2114     TIP3     H2       HT       0.417000       1.00800           0
     28653 TIP3     2115     TIP3     OH2      OT      -0.834000       15.9994           0
     28654 TIP3     2115     TIP3     H1       HT       0.417000       1.00800           0
     28655 TIP3     2115     TIP3     H2       HT       0.417000       1.00800           0
     28656 TIP3     2116     TIP3     OH2      OT      -0.834000       15.9994           0
     28657 TIP3     2116     TIP3     H1       HT       0.417000       1.00800           0
     28658 TIP3     2116     TIP3     H2       HT       0.417000       1.00800           0
     28659 TIP3     2117     TIP3     OH2      OT      -0.834000       15.9994           0
     28660 TIP3     2117     TIP3     H1       HT       0.417000       1.00800           0
     28661 TIP3     2117     TIP3     H2       HT       0.417000       1.00800           0
     28662 TIP3     2118     TIP3     OH2      OT      -0.834000       15.9994           0
     28663 TIP3     2118     TIP3     H1       HT       0.417000       1.00800           0
     28664 TIP3     2118     TIP3     H2       HT       0.417000       1.00800           0
     28665 TIP3     2119     TIP3     OH2      OT      -0.834000       15.9994           0
     28666 TIP3     2119     TIP3     H1       HT       0.417000       1.00800           0
     28667 TIP3     2119     TIP3     H2       HT       0.417000       1.00800           0
     28668 TIP3     2120     TIP3     OH2      OT      -0.834000       15.9994           0
     28669 TIP3     2120     TIP3     H1       HT       0.417000       1.00800           0
     28670 TIP3     2120     TIP3     H2       HT       0.417000       1.00800           0
     28671 TIP3     2121     TIP3     OH2      OT      -0.834000       15.9994           0
     28672 TIP3     2121     TIP3     H1       HT       0.417000       1.00800           0
     28673 TIP3     2121     TIP3     H2       HT       0.417000       1.00800           0
     28674 TIP3     2122     TIP3     OH2      OT      -0.834000       15.9994           0
     28675 TIP3     2122     TIP3     H1       HT       0.417000       1.00800           0
     28676 TIP3     2122     TIP3     H2       HT       0.417000       1.00800           0
     28677 TIP3     2123     TIP3     OH2      OT      -0.834000       15.9994           0
     28678 TIP3     2123     TIP3     H1       HT       0.417000       1.00800           0
     28679 TIP3     2123     TIP3     H2       HT       0.417000       1.00800           0
     28680 TIP3     2124     TIP3     OH2      OT      -0.834000       15.9994           0
     28681 TIP3     2124     TIP3     H1       HT       0.417000       1.00800           0
     28682 TIP3     2124     TIP3     H2       HT       0.417000       1.00800           0
     28683 TIP3     2125     TIP3     OH2      OT      -0.834000       15.9994           0
     28684 TIP3     2125     TIP3     H1       HT       0.417000       1.00800           0
     28685 TIP3     2125     TIP3     H2       HT       0.417000       1.00800           0
     28686 TIP3     2126     TIP3     OH2      OT      -0.834000       15.9994           0
     28687 TIP3     2126     TIP3     H1       HT       0.417000       1.00800           0
     28688 TIP3     2126     TIP3     H2       HT       0.417000       1.00800           0
     28689 TIP3     2127     TIP3     OH2      OT      -0.834000       15.9994           0
     28690 TIP3     2127     TIP3     H1       HT       0.417000       1.00800           0
     28691 TIP3     2127     TIP3     H2       HT       0.417000       1.00800           0
     28692 TIP3     2128     TIP3     OH2      OT      -0.834000       15.9994           0
     28693 TIP3     2128     TIP3     H1       HT       0.417000       1.00800           0
     28694 TIP3     2128     TIP3     H2       HT       0.417000       1.00800           0
     28695 TIP3     2129     TIP3     OH2      OT      -0.834000       15.9994           0
     28696 TIP3     2129     TIP3     H1       HT       0.417000       1.00800           0
     28697 TIP3     2129     TIP3     H2       HT       0.417000       1.00800           0
     28698 TIP3     2130     TIP3     OH2      OT      -0.834000       15.9994           0
     28699 TIP3     2130     TIP3     H1       HT       0.417000       1.00800           0
     28700 TIP3     2130     TIP3     H2       HT       0.417000       1.00800           0
     28701 TIP3     2131     TIP3     OH2      OT      -0.834000       15.9994           0
     28702 TIP3     2131     TIP3     H1       HT       0.417000       1.00800           0
     28703 TIP3     2131     TIP3     H2       HT       0.417000       1.00800           0
     28704 TIP3     2132     TIP3     OH2      OT      -0.834000       15.9994           0
     28705 TIP3     2132     TIP3     H1       HT       0.417000       1.00800           0
     28706 TIP3     2132     TIP3     H2       HT       0.417000       1.00800           0
     28707 TIP3     2133     TIP3     OH2      OT      -0.834000       15.9994           0
     28708 TIP3     2133     TIP3     H1       HT       0.417000       1.00800           0
     28709 TIP3     2133     TIP3     H2       HT       0.417000       1.00800           0
     28710 TIP3     2134     TIP3     OH2      OT      -0.834000       15.9994           0
     28711 TIP3     2134     TIP3     H1       HT       0.417000       1.00800           0
     28712 TIP3     2134     TIP3     H2       HT       0.417000       1.00800           0
     28713 TIP3     2135     TIP3     OH2      OT      -0.834000       15.9994           0
     28714 TIP3     2135     TIP3     H1       HT       0.417000       1.00800           0
     28715 TIP3     2135     TIP3     H2       HT       0.417000       1.00800           0
     28716 TIP3     2136     TIP3     OH2      OT      -0.834000       15.9994           0
     28717 TIP3     2136     TIP3     H1       HT       0.417000       1.00800           0
     28718 TIP3     2136     TIP3     H2       HT       0.417000       1.00800           0
     28719 TIP3     2137     TIP3     OH2      OT      -0.834000       15.9994           0
     28720 TIP3     2137     TIP3     H1       HT       0.417000       1.00800           0
     28721 TIP3     2137     TIP3     H2       HT       0.417000       1.00800           0
     28722 TIP3     2138     TIP3     OH2      OT      -0.834000       15.9994           0
     28723 TIP3     2138     TIP3     H1       HT       0.417000       1.00800           0
     28724 TIP3     2138     TIP3     H2       HT       0.417000       1.00800           0
     28725 TIP3     2139     TIP3     OH2      OT      -0.834000       15.9994           0
     28726 TIP3     2139     TIP3     H1       HT       0.417000       1.00800           0
     28727 TIP3     2139     TIP3     H2       HT       0.417000       1.00800           0
     28728 TIP3     2140     TIP3     OH2      OT      -0.834000       15.9994           0
     28729 TIP3     2140     TIP3     H1       HT       0.417000       1.00800           0
     28730 TIP3     2140     TIP3     H2       HT       0.417000       1.00800           0
     28731 TIP3     2141     TIP3     OH2      OT      -0.834000       15.9994           0
     28732 TIP3     2141     TIP3     H1       HT       0.417000       1.00800           0
     28733 TIP3     2141     TIP3     H2       HT       0.417000       1.00800           0
     28734 TIP3     2142     TIP3     OH2      OT      -0.834000       15.9994           0
     28735 TIP3     2142     TIP3     H1       HT       0.417000       1.00800           0
     28736 TIP3     2142     TIP3     H2       HT       0.417000       1.00800           0
     28737 TIP3     2143     TIP3     OH2      OT      -0.834000       15.9994           0
     28738 TIP3     2143     TIP3     H1       HT       0.417000       1.00800           0
     28739 TIP3     2143     TIP3     H2       HT       0.417000       1.00800           0
     28740 TIP3     2144     TIP3     OH2      OT      -0.834000       15.9994           0
     28741 TIP3     2144     TIP3     H1       HT       0.417000       1.00800           0
     28742 TIP3     2144     TIP3     H2       HT       0.417000       1.00800           0
     28743 TIP3     2145     TIP3     OH2      OT      -0.834000       15.9994           0
     28744 TIP3     2145     TIP3     H1       HT       0.417000       1.00800           0
     28745 TIP3     2145     TIP3     H2       HT       0.417000       1.00800           0
     28746 TIP3     2146     TIP3     OH2      OT      -0.834000       15.9994           0
     28747 TIP3     2146     TIP3     H1       HT       0.417000       1.00800           0
     28748 TIP3     2146     TIP3     H2       HT       0.417000       1.00800           0
     28749 TIP3     2147     TIP3     OH2      OT      -0.834000       15.9994           0
     28750 TIP3     2147     TIP3     H1       HT       0.417000       1.00800           0
     28751 TIP3     2147     TIP3     H2       HT       0.417000       1.00800           0
     28752 TIP3     2148     TIP3     OH2      OT      -0.834000       15.9994           0
     28753 TIP3     2148     TIP3     H1       HT       0.417000       1.00800           0
     28754 TIP3     2148     TIP3     H2       HT       0.417000       1.00800           0
     28755 TIP3     2149     TIP3     OH2      OT      -0.834000       15.9994           0
     28756 TIP3     2149     TIP3     H1       HT       0.417000       1.00800           0
     28757 TIP3     2149     TIP3     H2       HT       0.417000       1.00800           0
     28758 TIP3     2150     TIP3     OH2      OT      -0.834000       15.9994           0
     28759 TIP3     2150     TIP3     H1       HT       0.417000       1.00800           0
     28760 TIP3     2150     TIP3     H2       HT       0.417000       1.00800           0
     28761 TIP3     2151     TIP3     OH2      OT      -0.834000       15.9994           0
     28762 TIP3     2151     TIP3     H1       HT       0.417000       1.00800           0
     28763 TIP3     2151     TIP3     H2       HT       0.417000       1.00800           0
     28764 TIP3     2152     TIP3     OH2      OT      -0.834000       15.9994           0
     28765 TIP3     2152     TIP3     H1       HT       0.417000       1.00800           0
     28766 TIP3     2152     TIP3     H2       HT       0.417000       1.00800           0
     28767 TIP3     2153     TIP3     OH2      OT      -0.834000       15.9994           0
     28768 TIP3     2153     TIP3     H1       HT       0.417000       1.00800           0
     28769 TIP3     2153     TIP3     H2       HT       0.417000       1.00800           0
     28770 TIP3     2154     TIP3     OH2      OT      -0.834000       15.9994           0
     28771 TIP3     2154     TIP3     H1       HT       0.417000       1.00800           0
     28772 TIP3     2154     TIP3     H2       HT       0.417000       1.00800           0
     28773 TIP3     2155     TIP3     OH2      OT      -0.834000       15.9994           0
     28774 TIP3     2155     TIP3     H1       HT       0.417000       1.00800           0
     28775 TIP3     2155     TIP3     H2       HT       0.417000       1.00800           0
     28776 TIP3     2156     TIP3     OH2      OT      -0.834000       15.9994           0
     28777 TIP3     2156     TIP3     H1       HT       0.417000       1.00800           0
     28778 TIP3     2156     TIP3     H2       HT       0.417000       1.00800           0
     28779 TIP3     2157     TIP3     OH2      OT      -0.834000       15.9994           0
     28780 TIP3     2157     TIP3     H1       HT       0.417000       1.00800           0
     28781 TIP3     2157     TIP3     H2       HT       0.417000       1.00800           0
     28782 TIP3     2158     TIP3     OH2      OT      -0.834000       15.9994           0
     28783 TIP3     2158     TIP3     H1       HT       0.417000       1.00800           0
     28784 TIP3     2158     TIP3     H2       HT       0.417000       1.00800           0
     28785 TIP3     2159     TIP3     OH2      OT      -0.834000       15.9994           0
     28786 TIP3     2159     TIP3     H1       HT       0.417000       1.00800           0
     28787 TIP3     2159     TIP3     H2       HT       0.417000       1.00800           0
     28788 TIP3     2160     TIP3     OH2      OT      -0.834000       15.9994           0
     28789 TIP3     2160     TIP3     H1       HT       0.417000       1.00800           0
     28790 TIP3     2160     TIP3     H2       HT       0.417000       1.00800           0
     28791 TIP3     2161     TIP3     OH2      OT      -0.834000       15.9994           0
     28792 TIP3     2161     TIP3     H1       HT       0.417000       1.00800           0
     28793 TIP3     2161     TIP3     H2       HT       0.417000       1.00800           0
     28794 TIP3     2162     TIP3     OH2      OT      -0.834000       15.9994           0
     28795 TIP3     2162     TIP3     H1       HT       0.417000       1.00800           0
     28796 TIP3     2162     TIP3     H2       HT       0.417000       1.00800           0
     28797 TIP3     2163     TIP3     OH2      OT      -0.834000       15.9994           0
     28798 TIP3     2163     TIP3     H1       HT       0.417000       1.00800           0
     28799 TIP3     2163     TIP3     H2       HT       0.417000       1.00800           0
     28800 TIP3     2164     TIP3     OH2      OT      -0.834000       15.9994           0
     28801 TIP3     2164     TIP3     H1       HT       0.417000       1.00800           0
     28802 TIP3     2164     TIP3     H2       HT       0.417000       1.00800           0
     28803 TIP3     2165     TIP3     OH2      OT      -0.834000       15.9994           0
     28804 TIP3     2165     TIP3     H1       HT       0.417000       1.00800           0
     28805 TIP3     2165     TIP3     H2       HT       0.417000       1.00800           0
     28806 TIP3     2166     TIP3     OH2      OT      -0.834000       15.9994           0
     28807 TIP3     2166     TIP3     H1       HT       0.417000       1.00800           0
     28808 TIP3     2166     TIP3     H2       HT       0.417000       1.00800           0
     28809 TIP3     2167     TIP3     OH2      OT      -0.834000       15.9994           0
     28810 TIP3     2167     TIP3     H1       HT       0.417000       1.00800           0
     28811 TIP3     2167     TIP3     H2       HT       0.417000       1.00800           0
     28812 TIP3     2168     TIP3     OH2      OT      -0.834000       15.9994           0
     28813 TIP3     2168     TIP3     H1       HT       0.417000       1.00800           0
     28814 TIP3     2168     TIP3     H2       HT       0.417000       1.00800           0
     28815 TIP3     2169     TIP3     OH2      OT      -0.834000       15.9994           0
     28816 TIP3     2169     TIP3     H1       HT       0.417000       1.00800           0
     28817 TIP3     2169     TIP3     H2       HT       0.417000       1.00800           0
     28818 TIP3     2170     TIP3     OH2      OT      -0.834000       15.9994           0
     28819 TIP3     2170     TIP3     H1       HT       0.417000       1.00800           0
     28820 TIP3     2170     TIP3     H2       HT       0.417000       1.00800           0
     28821 TIP3     2171     TIP3     OH2      OT      -0.834000       15.9994           0
     28822 TIP3     2171     TIP3     H1       HT       0.417000       1.00800           0
     28823 TIP3     2171     TIP3     H2       HT       0.417000       1.00800           0
     28824 TIP3     2172     TIP3     OH2      OT      -0.834000       15.9994           0
     28825 TIP3     2172     TIP3     H1       HT       0.417000       1.00800           0
     28826 TIP3     2172     TIP3     H2       HT       0.417000       1.00800           0
     28827 TIP3     2173     TIP3     OH2      OT      -0.834000       15.9994           0
     28828 TIP3     2173     TIP3     H1       HT       0.417000       1.00800           0
     28829 TIP3     2173     TIP3     H2       HT       0.417000       1.00800           0
     28830 TIP3     2174     TIP3     OH2      OT      -0.834000       15.9994           0
     28831 TIP3     2174     TIP3     H1       HT       0.417000       1.00800           0
     28832 TIP3     2174     TIP3     H2       HT       0.417000       1.00800           0
     28833 TIP3     2175     TIP3     OH2      OT      -0.834000       15.9994           0
     28834 TIP3     2175     TIP3     H1       HT       0.417000       1.00800           0
     28835 TIP3     2175     TIP3     H2       HT       0.417000       1.00800           0
     28836 TIP3     2176     TIP3     OH2      OT      -0.834000       15.9994           0
     28837 TIP3     2176     TIP3     H1       HT       0.417000       1.00800           0
     28838 TIP3     2176     TIP3     H2       HT       0.417000       1.00800           0
     28839 TIP3     2177     TIP3     OH2      OT      -0.834000       15.9994           0
     28840 TIP3     2177     TIP3     H1       HT       0.417000       1.00800           0
     28841 TIP3     2177     TIP3     H2       HT       0.417000       1.00800           0
     28842 TIP3     2178     TIP3     OH2      OT      -0.834000       15.9994           0
     28843 TIP3     2178     TIP3     H1       HT       0.417000       1.00800           0
     28844 TIP3     2178     TIP3     H2       HT       0.417000       1.00800           0
     28845 TIP3     2179     TIP3     OH2      OT      -0.834000       15.9994           0
     28846 TIP3     2179     TIP3     H1       HT       0.417000       1.00800           0
     28847 TIP3     2179     TIP3     H2       HT       0.417000       1.00800           0
     28848 TIP3     2180     TIP3     OH2      OT      -0.834000       15.9994           0
     28849 TIP3     2180     TIP3     H1       HT       0.417000       1.00800           0
     28850 TIP3     2180     TIP3     H2       HT       0.417000       1.00800           0
     28851 TIP3     2181     TIP3     OH2      OT      -0.834000       15.9994           0
     28852 TIP3     2181     TIP3     H1       HT       0.417000       1.00800           0
     28853 TIP3     2181     TIP3     H2       HT       0.417000       1.00800           0
     28854 TIP3     2182     TIP3     OH2      OT      -0.834000       15.9994           0
     28855 TIP3     2182     TIP3     H1       HT       0.417000       1.00800           0
     28856 TIP3     2182     TIP3     H2       HT       0.417000       1.00800           0
     28857 TIP3     2183     TIP3     OH2      OT      -0.834000       15.9994           0
     28858 TIP3     2183     TIP3     H1       HT       0.417000       1.00800           0
     28859 TIP3     2183     TIP3     H2       HT       0.417000       1.00800           0
     28860 TIP3     2184     TIP3     OH2      OT      -0.834000       15.9994           0
     28861 TIP3     2184     TIP3     H1       HT       0.417000       1.00800           0
     28862 TIP3     2184     TIP3     H2       HT       0.417000       1.00800           0
     28863 TIP3     2185     TIP3     OH2      OT      -0.834000       15.9994           0
     28864 TIP3     2185     TIP3     H1       HT       0.417000       1.00800           0
     28865 TIP3     2185     TIP3     H2       HT       0.417000       1.00800           0
     28866 TIP3     2186     TIP3     OH2      OT      -0.834000       15.9994           0
     28867 TIP3     2186     TIP3     H1       HT       0.417000       1.00800           0
     28868 TIP3     2186     TIP3     H2       HT       0.417000       1.00800           0
     28869 TIP3     2187     TIP3     OH2      OT      -0.834000       15.9994           0
     28870 TIP3     2187     TIP3     H1       HT       0.417000       1.00800           0
     28871 TIP3     2187     TIP3     H2       HT       0.417000       1.00800           0
     28872 TIP3     2188     TIP3     OH2      OT      -0.834000       15.9994           0
     28873 TIP3     2188     TIP3     H1       HT       0.417000       1.00800           0
     28874 TIP3     2188     TIP3     H2       HT       0.417000       1.00800           0
     28875 TIP3     2189     TIP3     OH2      OT      -0.834000       15.9994           0
     28876 TIP3     2189     TIP3     H1       HT       0.417000       1.00800           0
     28877 TIP3     2189     TIP3     H2       HT       0.417000       1.00800           0
     28878 TIP3     2190     TIP3     OH2      OT      -0.834000       15.9994           0
     28879 TIP3     2190     TIP3     H1       HT       0.417000       1.00800           0
     28880 TIP3     2190     TIP3     H2       HT       0.417000       1.00800           0
     28881 TIP3     2191     TIP3     OH2      OT      -0.834000       15.9994           0
     28882 TIP3     2191     TIP3     H1       HT       0.417000       1.00800           0
     28883 TIP3     2191     TIP3     H2       HT       0.417000       1.00800           0
     28884 TIP3     2192     TIP3     OH2      OT      -0.834000       15.9994           0
     28885 TIP3     2192     TIP3     H1       HT       0.417000       1.00800           0
     28886 TIP3     2192     TIP3     H2       HT       0.417000       1.00800           0
     28887 TIP3     2193     TIP3     OH2      OT      -0.834000       15.9994           0
     28888 TIP3     2193     TIP3     H1       HT       0.417000       1.00800           0
     28889 TIP3     2193     TIP3     H2       HT       0.417000       1.00800           0
     28890 TIP3     2194     TIP3     OH2      OT      -0.834000       15.9994           0
     28891 TIP3     2194     TIP3     H1       HT       0.417000       1.00800           0
     28892 TIP3     2194     TIP3     H2       HT       0.417000       1.00800           0
     28893 TIP3     2195     TIP3     OH2      OT      -0.834000       15.9994           0
     28894 TIP3     2195     TIP3     H1       HT       0.417000       1.00800           0
     28895 TIP3     2195     TIP3     H2       HT       0.417000       1.00800           0
     28896 TIP3     2196     TIP3     OH2      OT      -0.834000       15.9994           0
     28897 TIP3     2196     TIP3     H1       HT       0.417000       1.00800           0
     28898 TIP3     2196     TIP3     H2       HT       0.417000       1.00800           0
     28899 TIP3     2197     TIP3     OH2      OT      -0.834000       15.9994           0
     28900 TIP3     2197     TIP3     H1       HT       0.417000       1.00800           0
     28901 TIP3     2197     TIP3     H2       HT       0.417000       1.00800           0
     28902 TIP3     2198     TIP3     OH2      OT      -0.834000       15.9994           0
     28903 TIP3     2198     TIP3     H1       HT       0.417000       1.00800           0
     28904 TIP3     2198     TIP3     H2       HT       0.417000       1.00800           0
     28905 TIP3     2199     TIP3     OH2      OT      -0.834000       15.9994           0
     28906 TIP3     2199     TIP3     H1       HT       0.417000       1.00800           0
     28907 TIP3     2199     TIP3     H2       HT       0.417000       1.00800           0
     28908 TIP3     2200     TIP3     OH2      OT      -0.834000       15.9994           0
     28909 TIP3     2200     TIP3     H1       HT       0.417000       1.00800           0
     28910 TIP3     2200     TIP3     H2       HT       0.417000       1.00800           0
     28911 TIP3     2201     TIP3     OH2      OT      -0.834000       15.9994           0
     28912 TIP3     2201     TIP3     H1       HT       0.417000       1.00800           0
     28913 TIP3     2201     TIP3     H2       HT       0.417000       1.00800           0
     28914 TIP3     2202     TIP3     OH2      OT      -0.834000       15.9994           0
     28915 TIP3     2202     TIP3     H1       HT       0.417000       1.00800           0
     28916 TIP3     2202     TIP3     H2       HT       0.417000       1.00800           0
     28917 TIP3     2203     TIP3     OH2      OT      -0.834000       15.9994           0
     28918 TIP3     2203     TIP3     H1       HT       0.417000       1.00800           0
     28919 TIP3     2203     TIP3     H2       HT       0.417000       1.00800           0
     28920 TIP3     2204     TIP3     OH2      OT      -0.834000       15.9994           0
     28921 TIP3     2204     TIP3     H1       HT       0.417000       1.00800           0
     28922 TIP3     2204     TIP3     H2       HT       0.417000       1.00800           0
     28923 TIP3     2205     TIP3     OH2      OT      -0.834000       15.9994           0
     28924 TIP3     2205     TIP3     H1       HT       0.417000       1.00800           0
     28925 TIP3     2205     TIP3     H2       HT       0.417000       1.00800           0
     28926 TIP3     2206     TIP3     OH2      OT      -0.834000       15.9994           0
     28927 TIP3     2206     TIP3     H1       HT       0.417000       1.00800           0
     28928 TIP3     2206     TIP3     H2       HT       0.417000       1.00800           0
     28929 TIP3     2207     TIP3     OH2      OT      -0.834000       15.9994           0
     28930 TIP3     2207     TIP3     H1       HT       0.417000       1.00800           0
     28931 TIP3     2207     TIP3     H2       HT       0.417000       1.00800           0
     28932 TIP3     2208     TIP3     OH2      OT      -0.834000       15.9994           0
     28933 TIP3     2208     TIP3     H1       HT       0.417000       1.00800           0
     28934 TIP3     2208     TIP3     H2       HT       0.417000       1.00800           0
     28935 TIP3     2209     TIP3     OH2      OT      -0.834000       15.9994           0
     28936 TIP3     2209     TIP3     H1       HT       0.417000       1.00800           0
     28937 TIP3     2209     TIP3     H2       HT       0.417000       1.00800           0
     28938 TIP3     2210     TIP3     OH2      OT      -0.834000       15.9994           0
     28939 TIP3     2210     TIP3     H1       HT       0.417000       1.00800           0
     28940 TIP3     2210     TIP3     H2       HT       0.417000       1.00800           0
     28941 TIP3     2211     TIP3     OH2      OT      -0.834000       15.9994           0
     28942 TIP3     2211     TIP3     H1       HT       0.417000       1.00800           0
     28943 TIP3     2211     TIP3     H2       HT       0.417000       1.00800           0
     28944 TIP3     2212     TIP3     OH2      OT      -0.834000       15.9994           0
     28945 TIP3     2212     TIP3     H1       HT       0.417000       1.00800           0
     28946 TIP3     2212     TIP3     H2       HT       0.417000       1.00800           0
     28947 TIP3     2213     TIP3     OH2      OT      -0.834000       15.9994           0
     28948 TIP3     2213     TIP3     H1       HT       0.417000       1.00800           0
     28949 TIP3     2213     TIP3     H2       HT       0.417000       1.00800           0
     28950 TIP3     2214     TIP3     OH2      OT      -0.834000       15.9994           0
     28951 TIP3     2214     TIP3     H1       HT       0.417000       1.00800           0
     28952 TIP3     2214     TIP3     H2       HT       0.417000       1.00800           0
     28953 TIP3     2215     TIP3     OH2      OT      -0.834000       15.9994           0
     28954 TIP3     2215     TIP3     H1       HT       0.417000       1.00800           0
     28955 TIP3     2215     TIP3     H2       HT       0.417000       1.00800           0
     28956 TIP3     2216     TIP3     OH2      OT      -0.834000       15.9994           0
     28957 TIP3     2216     TIP3     H1       HT       0.417000       1.00800           0
     28958 TIP3     2216     TIP3     H2       HT       0.417000       1.00800           0
     28959 TIP3     2217     TIP3     OH2      OT      -0.834000       15.9994           0
     28960 TIP3     2217     TIP3     H1       HT       0.417000       1.00800           0
     28961 TIP3     2217     TIP3     H2       HT       0.417000       1.00800           0
     28962 TIP3     2218     TIP3     OH2      OT      -0.834000       15.9994           0
     28963 TIP3     2218     TIP3     H1       HT       0.417000       1.00800           0
     28964 TIP3     2218     TIP3     H2       HT       0.417000       1.00800           0
     28965 TIP3     2219     TIP3     OH2      OT      -0.834000       15.9994           0
     28966 TIP3     2219     TIP3     H1       HT       0.417000       1.00800           0
     28967 TIP3     2219     TIP3     H2       HT       0.417000       1.00800           0
     28968 TIP3     2220     TIP3     OH2      OT      -0.834000       15.9994           0
     28969 TIP3     2220     TIP3     H1       HT       0.417000       1.00800           0
     28970 TIP3     2220     TIP3     H2       HT       0.417000       1.00800           0
     28971 TIP3     2221     TIP3     OH2      OT      -0.834000       15.9994           0
     28972 TIP3     2221     TIP3     H1       HT       0.417000       1.00800           0
     28973 TIP3     2221     TIP3     H2       HT       0.417000       1.00800           0
     28974 TIP3     2222     TIP3     OH2      OT      -0.834000       15.9994           0
     28975 TIP3     2222     TIP3     H1       HT       0.417000       1.00800           0
     28976 TIP3     2222     TIP3     H2       HT       0.417000       1.00800           0
     28977 TIP3     2223     TIP3     OH2      OT      -0.834000       15.9994           0
     28978 TIP3     2223     TIP3     H1       HT       0.417000       1.00800           0
     28979 TIP3     2223     TIP3     H2       HT       0.417000       1.00800           0
     28980 TIP3     2224     TIP3     OH2      OT      -0.834000       15.9994           0
     28981 TIP3     2224     TIP3     H1       HT       0.417000       1.00800           0
     28982 TIP3     2224     TIP3     H2       HT       0.417000       1.00800           0
     28983 TIP3     2225     TIP3     OH2      OT      -0.834000       15.9994           0
     28984 TIP3     2225     TIP3     H1       HT       0.417000       1.00800           0
     28985 TIP3     2225     TIP3     H2       HT       0.417000       1.00800           0
     28986 TIP3     2226     TIP3     OH2      OT      -0.834000       15.9994           0
     28987 TIP3     2226     TIP3     H1       HT       0.417000       1.00800           0
     28988 TIP3     2226     TIP3     H2       HT       0.417000       1.00800           0
     28989 TIP3     2227     TIP3     OH2      OT      -0.834000       15.9994           0
     28990 TIP3     2227     TIP3     H1       HT       0.417000       1.00800           0
     28991 TIP3     2227     TIP3     H2       HT       0.417000       1.00800           0
     28992 TIP3     2228     TIP3     OH2      OT      -0.834000       15.9994           0
     28993 TIP3     2228     TIP3     H1       HT       0.417000       1.00800           0
     28994 TIP3     2228     TIP3     H2       HT       0.417000       1.00800           0
     28995 TIP3     2229     TIP3     OH2      OT      -0.834000       15.9994           0
     28996 TIP3     2229     TIP3     H1       HT       0.417000       1.00800           0
     28997 TIP3     2229     TIP3     H2       HT       0.417000       1.00800           0
     28998 TIP3     2230     TIP3     OH2      OT      -0.834000       15.9994           0
     28999 TIP3     2230     TIP3     H1       HT       0.417000       1.00800           0
     29000 TIP3     2230     TIP3     H2       HT       0.417000       1.00800           0
     29001 TIP3     2231     TIP3     OH2      OT      -0.834000       15.9994           0
     29002 TIP3     2231     TIP3     H1       HT       0.417000       1.00800           0
     29003 TIP3     2231     TIP3     H2       HT       0.417000       1.00800           0
     29004 TIP3     2232     TIP3     OH2      OT      -0.834000       15.9994           0
     29005 TIP3     2232     TIP3     H1       HT       0.417000       1.00800           0
     29006 TIP3     2232     TIP3     H2       HT       0.417000       1.00800           0
     29007 TIP3     2233     TIP3     OH2      OT      -0.834000       15.9994           0
     29008 TIP3     2233     TIP3     H1       HT       0.417000       1.00800           0
     29009 TIP3     2233     TIP3     H2       HT       0.417000       1.00800           0
     29010 TIP3     2234     TIP3     OH2      OT      -0.834000       15.9994           0
     29011 TIP3     2234     TIP3     H1       HT       0.417000       1.00800           0
     29012 TIP3     2234     TIP3     H2       HT       0.417000       1.00800           0
     29013 TIP3     2235     TIP3     OH2      OT      -0.834000       15.9994           0
     29014 TIP3     2235     TIP3     H1       HT       0.417000       1.00800           0
     29015 TIP3     2235     TIP3     H2       HT       0.417000       1.00800           0
     29016 TIP3     2236     TIP3     OH2      OT      -0.834000       15.9994           0
     29017 TIP3     2236     TIP3     H1       HT       0.417000       1.00800           0
     29018 TIP3     2236     TIP3     H2       HT       0.417000       1.00800           0
     29019 TIP3     2237     TIP3     OH2      OT      -0.834000       15.9994           0
     29020 TIP3     2237     TIP3     H1       HT       0.417000       1.00800           0
     29021 TIP3     2237     TIP3     H2       HT       0.417000       1.00800           0
     29022 TIP3     2238     TIP3     OH2      OT      -0.834000       15.9994           0
     29023 TIP3     2238     TIP3     H1       HT       0.417000       1.00800           0
     29024 TIP3     2238     TIP3     H2       HT       0.417000       1.00800           0
     29025 TIP3     2239     TIP3     OH2      OT      -0.834000       15.9994           0
     29026 TIP3     2239     TIP3     H1       HT       0.417000       1.00800           0
     29027 TIP3     2239     TIP3     H2       HT       0.417000       1.00800           0
     29028 TIP3     2240     TIP3     OH2      OT      -0.834000       15.9994           0
     29029 TIP3     2240     TIP3     H1       HT       0.417000       1.00800           0
     29030 TIP3     2240     TIP3     H2       HT       0.417000       1.00800           0
     29031 TIP3     2241     TIP3     OH2      OT      -0.834000       15.9994           0
     29032 TIP3     2241     TIP3     H1       HT       0.417000       1.00800           0
     29033 TIP3     2241     TIP3     H2       HT       0.417000       1.00800           0
     29034 TIP3     2242     TIP3     OH2      OT      -0.834000       15.9994           0
     29035 TIP3     2242     TIP3     H1       HT       0.417000       1.00800           0
     29036 TIP3     2242     TIP3     H2       HT       0.417000       1.00800           0
     29037 TIP3     2243     TIP3     OH2      OT      -0.834000       15.9994           0
     29038 TIP3     2243     TIP3     H1       HT       0.417000       1.00800           0
     29039 TIP3     2243     TIP3     H2       HT       0.417000       1.00800           0
     29040 TIP3     2244     TIP3     OH2      OT      -0.834000       15.9994           0
     29041 TIP3     2244     TIP3     H1       HT       0.417000       1.00800           0
     29042 TIP3     2244     TIP3     H2       HT       0.417000       1.00800           0
     29043 TIP3     2245     TIP3     OH2      OT      -0.834000       15.9994           0
     29044 TIP3     2245     TIP3     H1       HT       0.417000       1.00800           0
     29045 TIP3     2245     TIP3     H2       HT       0.417000       1.00800           0
     29046 TIP3     2246     TIP3     OH2      OT      -0.834000       15.9994           0
     29047 TIP3     2246     TIP3     H1       HT       0.417000       1.00800           0
     29048 TIP3     2246     TIP3     H2       HT       0.417000       1.00800           0
     29049 TIP3     2247     TIP3     OH2      OT      -0.834000       15.9994           0
     29050 TIP3     2247     TIP3     H1       HT       0.417000       1.00800           0
     29051 TIP3     2247     TIP3     H2       HT       0.417000       1.00800           0
     29052 TIP3     2248     TIP3     OH2      OT      -0.834000       15.9994           0
     29053 TIP3     2248     TIP3     H1       HT       0.417000       1.00800           0
     29054 TIP3     2248     TIP3     H2       HT       0.417000       1.00800           0
     29055 TIP3     2249     TIP3     OH2      OT      -0.834000       15.9994           0
     29056 TIP3     2249     TIP3     H1       HT       0.417000       1.00800           0
     29057 TIP3     2249     TIP3     H2       HT       0.417000       1.00800           0
     29058 TIP3     2250     TIP3     OH2      OT      -0.834000       15.9994           0
     29059 TIP3     2250     TIP3     H1       HT       0.417000       1.00800           0
     29060 TIP3     2250     TIP3     H2       HT       0.417000       1.00800           0
     29061 TIP3     2251     TIP3     OH2      OT      -0.834000       15.9994           0
     29062 TIP3     2251     TIP3     H1       HT       0.417000       1.00800           0
     29063 TIP3     2251     TIP3     H2       HT       0.417000       1.00800           0
     29064 TIP3     2252     TIP3     OH2      OT      -0.834000       15.9994           0
     29065 TIP3     2252     TIP3     H1       HT       0.417000       1.00800           0
     29066 TIP3     2252     TIP3     H2       HT       0.417000       1.00800           0
     29067 TIP3     2253     TIP3     OH2      OT      -0.834000       15.9994           0
     29068 TIP3     2253     TIP3     H1       HT       0.417000       1.00800           0
     29069 TIP3     2253     TIP3     H2       HT       0.417000       1.00800           0
     29070 TIP3     2254     TIP3     OH2      OT      -0.834000       15.9994           0
     29071 TIP3     2254     TIP3     H1       HT       0.417000       1.00800           0
     29072 TIP3     2254     TIP3     H2       HT       0.417000       1.00800           0
     29073 TIP3     2255     TIP3     OH2      OT      -0.834000       15.9994           0
     29074 TIP3     2255     TIP3     H1       HT       0.417000       1.00800           0
     29075 TIP3     2255     TIP3     H2       HT       0.417000       1.00800           0
     29076 TIP3     2256     TIP3     OH2      OT      -0.834000       15.9994           0
     29077 TIP3     2256     TIP3     H1       HT       0.417000       1.00800           0
     29078 TIP3     2256     TIP3     H2       HT       0.417000       1.00800           0
     29079 TIP3     2257     TIP3     OH2      OT      -0.834000       15.9994           0
     29080 TIP3     2257     TIP3     H1       HT       0.417000       1.00800           0
     29081 TIP3     2257     TIP3     H2       HT       0.417000       1.00800           0
     29082 TIP3     2258     TIP3     OH2      OT      -0.834000       15.9994           0
     29083 TIP3     2258     TIP3     H1       HT       0.417000       1.00800           0
     29084 TIP3     2258     TIP3     H2       HT       0.417000       1.00800           0
     29085 TIP3     2259     TIP3     OH2      OT      -0.834000       15.9994           0
     29086 TIP3     2259     TIP3     H1       HT       0.417000       1.00800           0
     29087 TIP3     2259     TIP3     H2       HT       0.417000       1.00800           0
     29088 TIP3     2260     TIP3     OH2      OT      -0.834000       15.9994           0
     29089 TIP3     2260     TIP3     H1       HT       0.417000       1.00800           0
     29090 TIP3     2260     TIP3     H2       HT       0.417000       1.00800           0
     29091 TIP3     2261     TIP3     OH2      OT      -0.834000       15.9994           0
     29092 TIP3     2261     TIP3     H1       HT       0.417000       1.00800           0
     29093 TIP3     2261     TIP3     H2       HT       0.417000       1.00800           0
     29094 TIP3     2262     TIP3     OH2      OT      -0.834000       15.9994           0
     29095 TIP3     2262     TIP3     H1       HT       0.417000       1.00800           0
     29096 TIP3     2262     TIP3     H2       HT       0.417000       1.00800           0
     29097 TIP3     2263     TIP3     OH2      OT      -0.834000       15.9994           0
     29098 TIP3     2263     TIP3     H1       HT       0.417000       1.00800           0
     29099 TIP3     2263     TIP3     H2       HT       0.417000       1.00800           0
     29100 TIP3     2264     TIP3     OH2      OT      -0.834000       15.9994           0
     29101 TIP3     2264     TIP3     H1       HT       0.417000       1.00800           0
     29102 TIP3     2264     TIP3     H2       HT       0.417000       1.00800           0
     29103 TIP3     2265     TIP3     OH2      OT      -0.834000       15.9994           0
     29104 TIP3     2265     TIP3     H1       HT       0.417000       1.00800           0
     29105 TIP3     2265     TIP3     H2       HT       0.417000       1.00800           0
     29106 TIP3     2266     TIP3     OH2      OT      -0.834000       15.9994           0
     29107 TIP3     2266     TIP3     H1       HT       0.417000       1.00800           0
     29108 TIP3     2266     TIP3     H2       HT       0.417000       1.00800           0
     29109 TIP3     2267     TIP3     OH2      OT      -0.834000       15.9994           0
     29110 TIP3     2267     TIP3     H1       HT       0.417000       1.00800           0
     29111 TIP3     2267     TIP3     H2       HT       0.417000       1.00800           0
     29112 TIP3     2268     TIP3     OH2      OT      -0.834000       15.9994           0
     29113 TIP3     2268     TIP3     H1       HT       0.417000       1.00800           0
     29114 TIP3     2268     TIP3     H2       HT       0.417000       1.00800           0
     29115 TIP3     2269     TIP3     OH2      OT      -0.834000       15.9994           0
     29116 TIP3     2269     TIP3     H1       HT       0.417000       1.00800           0
     29117 TIP3     2269     TIP3     H2       HT       0.417000       1.00800           0
     29118 TIP3     2270     TIP3     OH2      OT      -0.834000       15.9994           0
     29119 TIP3     2270     TIP3     H1       HT       0.417000       1.00800           0
     29120 TIP3     2270     TIP3     H2       HT       0.417000       1.00800           0
     29121 TIP3     2271     TIP3     OH2      OT      -0.834000       15.9994           0
     29122 TIP3     2271     TIP3     H1       HT       0.417000       1.00800           0
     29123 TIP3     2271     TIP3     H2       HT       0.417000       1.00800           0
     29124 TIP3     2272     TIP3     OH2      OT      -0.834000       15.9994           0
     29125 TIP3     2272     TIP3     H1       HT       0.417000       1.00800           0
     29126 TIP3     2272     TIP3     H2       HT       0.417000       1.00800           0
     29127 TIP3     2273     TIP3     OH2      OT      -0.834000       15.9994           0
     29128 TIP3     2273     TIP3     H1       HT       0.417000       1.00800           0
     29129 TIP3     2273     TIP3     H2       HT       0.417000       1.00800           0
     29130 TIP3     2274     TIP3     OH2      OT      -0.834000       15.9994           0
     29131 TIP3     2274     TIP3     H1       HT       0.417000       1.00800           0
     29132 TIP3     2274     TIP3     H2       HT       0.417000       1.00800           0
     29133 TIP3     2275     TIP3     OH2      OT      -0.834000       15.9994           0
     29134 TIP3     2275     TIP3     H1       HT       0.417000       1.00800           0
     29135 TIP3     2275     TIP3     H2       HT       0.417000       1.00800           0
     29136 TIP3     2276     TIP3     OH2      OT      -0.834000       15.9994           0
     29137 TIP3     2276     TIP3     H1       HT       0.417000       1.00800           0
     29138 TIP3     2276     TIP3     H2       HT       0.417000       1.00800           0
     29139 TIP3     2277     TIP3     OH2      OT      -0.834000       15.9994           0
     29140 TIP3     2277     TIP3     H1       HT       0.417000       1.00800           0
     29141 TIP3     2277     TIP3     H2       HT       0.417000       1.00800           0
     29142 TIP3     2278     TIP3     OH2      OT      -0.834000       15.9994           0
     29143 TIP3     2278     TIP3     H1       HT       0.417000       1.00800           0
     29144 TIP3     2278     TIP3     H2       HT       0.417000       1.00800           0
     29145 TIP3     2279     TIP3     OH2      OT      -0.834000       15.9994           0
     29146 TIP3     2279     TIP3     H1       HT       0.417000       1.00800           0
     29147 TIP3     2279     TIP3     H2       HT       0.417000       1.00800           0
     29148 TIP3     2280     TIP3     OH2      OT      -0.834000       15.9994           0
     29149 TIP3     2280     TIP3     H1       HT       0.417000       1.00800           0
     29150 TIP3     2280     TIP3     H2       HT       0.417000       1.00800           0
     29151 TIP3     2281     TIP3     OH2      OT      -0.834000       15.9994           0
     29152 TIP3     2281     TIP3     H1       HT       0.417000       1.00800           0
     29153 TIP3     2281     TIP3     H2       HT       0.417000       1.00800           0
     29154 TIP3     2282     TIP3     OH2      OT      -0.834000       15.9994           0
     29155 TIP3     2282     TIP3     H1       HT       0.417000       1.00800           0
     29156 TIP3     2282     TIP3     H2       HT       0.417000       1.00800           0
     29157 TIP3     2283     TIP3     OH2      OT      -0.834000       15.9994           0
     29158 TIP3     2283     TIP3     H1       HT       0.417000       1.00800           0
     29159 TIP3     2283     TIP3     H2       HT       0.417000       1.00800           0
     29160 TIP3     2284     TIP3     OH2      OT      -0.834000       15.9994           0
     29161 TIP3     2284     TIP3     H1       HT       0.417000       1.00800           0
     29162 TIP3     2284     TIP3     H2       HT       0.417000       1.00800           0
     29163 TIP3     2285     TIP3     OH2      OT      -0.834000       15.9994           0
     29164 TIP3     2285     TIP3     H1       HT       0.417000       1.00800           0
     29165 TIP3     2285     TIP3     H2       HT       0.417000       1.00800           0
     29166 TIP3     2286     TIP3     OH2      OT      -0.834000       15.9994           0
     29167 TIP3     2286     TIP3     H1       HT       0.417000       1.00800           0
     29168 TIP3     2286     TIP3     H2       HT       0.417000       1.00800           0
     29169 TIP3     2287     TIP3     OH2      OT      -0.834000       15.9994           0
     29170 TIP3     2287     TIP3     H1       HT       0.417000       1.00800           0
     29171 TIP3     2287     TIP3     H2       HT       0.417000       1.00800           0
     29172 TIP3     2288     TIP3     OH2      OT      -0.834000       15.9994           0
     29173 TIP3     2288     TIP3     H1       HT       0.417000       1.00800           0
     29174 TIP3     2288     TIP3     H2       HT       0.417000       1.00800           0
     29175 TIP3     2289     TIP3     OH2      OT      -0.834000       15.9994           0
     29176 TIP3     2289     TIP3     H1       HT       0.417000       1.00800           0
     29177 TIP3     2289     TIP3     H2       HT       0.417000       1.00800           0
     29178 TIP3     2290     TIP3     OH2      OT      -0.834000       15.9994           0
     29179 TIP3     2290     TIP3     H1       HT       0.417000       1.00800           0
     29180 TIP3     2290     TIP3     H2       HT       0.417000       1.00800           0
     29181 TIP3     2291     TIP3     OH2      OT      -0.834000       15.9994           0
     29182 TIP3     2291     TIP3     H1       HT       0.417000       1.00800           0
     29183 TIP3     2291     TIP3     H2       HT       0.417000       1.00800           0
     29184 TIP3     2292     TIP3     OH2      OT      -0.834000       15.9994           0
     29185 TIP3     2292     TIP3     H1       HT       0.417000       1.00800           0
     29186 TIP3     2292     TIP3     H2       HT       0.417000       1.00800           0
     29187 TIP3     2293     TIP3     OH2      OT      -0.834000       15.9994           0
     29188 TIP3     2293     TIP3     H1       HT       0.417000       1.00800           0
     29189 TIP3     2293     TIP3     H2       HT       0.417000       1.00800           0
     29190 TIP3     2294     TIP3     OH2      OT      -0.834000       15.9994           0
     29191 TIP3     2294     TIP3     H1       HT       0.417000       1.00800           0
     29192 TIP3     2294     TIP3     H2       HT       0.417000       1.00800           0
     29193 TIP3     2295     TIP3     OH2      OT      -0.834000       15.9994           0
     29194 TIP3     2295     TIP3     H1       HT       0.417000       1.00800           0
     29195 TIP3     2295     TIP3     H2       HT       0.417000       1.00800           0
     29196 TIP3     2296     TIP3     OH2      OT      -0.834000       15.9994           0
     29197 TIP3     2296     TIP3     H1       HT       0.417000       1.00800           0
     29198 TIP3     2296     TIP3     H2       HT       0.417000       1.00800           0
     29199 TIP3     2297     TIP3     OH2      OT      -0.834000       15.9994           0
     29200 TIP3     2297     TIP3     H1       HT       0.417000       1.00800           0
     29201 TIP3     2297     TIP3     H2       HT       0.417000       1.00800           0
     29202 TIP3     2298     TIP3     OH2      OT      -0.834000       15.9994           0
     29203 TIP3     2298     TIP3     H1       HT       0.417000       1.00800           0
     29204 TIP3     2298     TIP3     H2       HT       0.417000       1.00800           0
     29205 TIP3     2299     TIP3     OH2      OT      -0.834000       15.9994           0
     29206 TIP3     2299     TIP3     H1       HT       0.417000       1.00800           0
     29207 TIP3     2299     TIP3     H2       HT       0.417000       1.00800           0
     29208 TIP3     2300     TIP3     OH2      OT      -0.834000       15.9994           0
     29209 TIP3     2300     TIP3     H1       HT       0.417000       1.00800           0
     29210 TIP3     2300     TIP3     H2       HT       0.417000       1.00800           0
     29211 TIP3     2301     TIP3     OH2      OT      -0.834000       15.9994           0
     29212 TIP3     2301     TIP3     H1       HT       0.417000       1.00800           0
     29213 TIP3     2301     TIP3     H2       HT       0.417000       1.00800           0
     29214 TIP3     2302     TIP3     OH2      OT      -0.834000       15.9994           0
     29215 TIP3     2302     TIP3     H1       HT       0.417000       1.00800           0
     29216 TIP3     2302     TIP3     H2       HT       0.417000       1.00800           0
     29217 TIP3     2303     TIP3     OH2      OT      -0.834000       15.9994           0
     29218 TIP3     2303     TIP3     H1       HT       0.417000       1.00800           0
     29219 TIP3     2303     TIP3     H2       HT       0.417000       1.00800           0
     29220 TIP3     2304     TIP3     OH2      OT      -0.834000       15.9994           0
     29221 TIP3     2304     TIP3     H1       HT       0.417000       1.00800           0
     29222 TIP3     2304     TIP3     H2       HT       0.417000       1.00800           0
     29223 TIP3     2305     TIP3     OH2      OT      -0.834000       15.9994           0
     29224 TIP3     2305     TIP3     H1       HT       0.417000       1.00800           0
     29225 TIP3     2305     TIP3     H2       HT       0.417000       1.00800           0
     29226 TIP3     2306     TIP3     OH2      OT      -0.834000       15.9994           0
     29227 TIP3     2306     TIP3     H1       HT       0.417000       1.00800           0
     29228 TIP3     2306     TIP3     H2       HT       0.417000       1.00800           0
     29229 TIP3     2307     TIP3     OH2      OT      -0.834000       15.9994           0
     29230 TIP3     2307     TIP3     H1       HT       0.417000       1.00800           0
     29231 TIP3     2307     TIP3     H2       HT       0.417000       1.00800           0
     29232 TIP3     2308     TIP3     OH2      OT      -0.834000       15.9994           0
     29233 TIP3     2308     TIP3     H1       HT       0.417000       1.00800           0
     29234 TIP3     2308     TIP3     H2       HT       0.417000       1.00800           0
     29235 TIP3     2309     TIP3     OH2      OT      -0.834000       15.9994           0
     29236 TIP3     2309     TIP3     H1       HT       0.417000       1.00800           0
     29237 TIP3     2309     TIP3     H2       HT       0.417000       1.00800           0
     29238 TIP3     2310     TIP3     OH2      OT      -0.834000       15.9994           0
     29239 TIP3     2310     TIP3     H1       HT       0.417000       1.00800           0
     29240 TIP3     2310     TIP3     H2       HT       0.417000       1.00800           0
     29241 TIP3     2311     TIP3     OH2      OT      -0.834000       15.9994           0
     29242 TIP3     2311     TIP3     H1       HT       0.417000       1.00800           0
     29243 TIP3     2311     TIP3     H2       HT       0.417000       1.00800           0
     29244 TIP3     2312     TIP3     OH2      OT      -0.834000       15.9994           0
     29245 TIP3     2312     TIP3     H1       HT       0.417000       1.00800           0
     29246 TIP3     2312     TIP3     H2       HT       0.417000       1.00800           0
     29247 TIP3     2313     TIP3     OH2      OT      -0.834000       15.9994           0
     29248 TIP3     2313     TIP3     H1       HT       0.417000       1.00800           0
     29249 TIP3     2313     TIP3     H2       HT       0.417000       1.00800           0
     29250 TIP3     2314     TIP3     OH2      OT      -0.834000       15.9994           0
     29251 TIP3     2314     TIP3     H1       HT       0.417000       1.00800           0
     29252 TIP3     2314     TIP3     H2       HT       0.417000       1.00800           0
     29253 TIP3     2315     TIP3     OH2      OT      -0.834000       15.9994           0
     29254 TIP3     2315     TIP3     H1       HT       0.417000       1.00800           0
     29255 TIP3     2315     TIP3     H2       HT       0.417000       1.00800           0
     29256 TIP3     2316     TIP3     OH2      OT      -0.834000       15.9994           0
     29257 TIP3     2316     TIP3     H1       HT       0.417000       1.00800           0
     29258 TIP3     2316     TIP3     H2       HT       0.417000       1.00800           0
     29259 TIP3     2317     TIP3     OH2      OT      -0.834000       15.9994           0
     29260 TIP3     2317     TIP3     H1       HT       0.417000       1.00800           0
     29261 TIP3     2317     TIP3     H2       HT       0.417000       1.00800           0
     29262 TIP3     2318     TIP3     OH2      OT      -0.834000       15.9994           0
     29263 TIP3     2318     TIP3     H1       HT       0.417000       1.00800           0
     29264 TIP3     2318     TIP3     H2       HT       0.417000       1.00800           0
     29265 TIP3     2319     TIP3     OH2      OT      -0.834000       15.9994           0
     29266 TIP3     2319     TIP3     H1       HT       0.417000       1.00800           0
     29267 TIP3     2319     TIP3     H2       HT       0.417000       1.00800           0
     29268 TIP3     2320     TIP3     OH2      OT      -0.834000       15.9994           0
     29269 TIP3     2320     TIP3     H1       HT       0.417000       1.00800           0
     29270 TIP3     2320     TIP3     H2       HT       0.417000       1.00800           0
     29271 TIP3     2321     TIP3     OH2      OT      -0.834000       15.9994           0
     29272 TIP3     2321     TIP3     H1       HT       0.417000       1.00800           0
     29273 TIP3     2321     TIP3     H2       HT       0.417000       1.00800           0
     29274 TIP3     2322     TIP3     OH2      OT      -0.834000       15.9994           0
     29275 TIP3     2322     TIP3     H1       HT       0.417000       1.00800           0
     29276 TIP3     2322     TIP3     H2       HT       0.417000       1.00800           0
     29277 TIP3     2323     TIP3     OH2      OT      -0.834000       15.9994           0
     29278 TIP3     2323     TIP3     H1       HT       0.417000       1.00800           0
     29279 TIP3     2323     TIP3     H2       HT       0.417000       1.00800           0
     29280 TIP3     2324     TIP3     OH2      OT      -0.834000       15.9994           0
     29281 TIP3     2324     TIP3     H1       HT       0.417000       1.00800           0
     29282 TIP3     2324     TIP3     H2       HT       0.417000       1.00800           0
     29283 TIP3     2325     TIP3     OH2      OT      -0.834000       15.9994           0
     29284 TIP3     2325     TIP3     H1       HT       0.417000       1.00800           0
     29285 TIP3     2325     TIP3     H2       HT       0.417000       1.00800           0
     29286 TIP3     2326     TIP3     OH2      OT      -0.834000       15.9994           0
     29287 TIP3     2326     TIP3     H1       HT       0.417000       1.00800           0
     29288 TIP3     2326     TIP3     H2       HT       0.417000       1.00800           0
     29289 TIP3     2327     TIP3     OH2      OT      -0.834000       15.9994           0
     29290 TIP3     2327     TIP3     H1       HT       0.417000       1.00800           0
     29291 TIP3     2327     TIP3     H2       HT       0.417000       1.00800           0
     29292 TIP3     2328     TIP3     OH2      OT      -0.834000       15.9994           0
     29293 TIP3     2328     TIP3     H1       HT       0.417000       1.00800           0
     29294 TIP3     2328     TIP3     H2       HT       0.417000       1.00800           0
     29295 TIP3     2329     TIP3     OH2      OT      -0.834000       15.9994           0
     29296 TIP3     2329     TIP3     H1       HT       0.417000       1.00800           0
     29297 TIP3     2329     TIP3     H2       HT       0.417000       1.00800           0
     29298 TIP3     2330     TIP3     OH2      OT      -0.834000       15.9994           0
     29299 TIP3     2330     TIP3     H1       HT       0.417000       1.00800           0
     29300 TIP3     2330     TIP3     H2       HT       0.417000       1.00800           0
     29301 TIP3     2331     TIP3     OH2      OT      -0.834000       15.9994           0
     29302 TIP3     2331     TIP3     H1       HT       0.417000       1.00800           0
     29303 TIP3     2331     TIP3     H2       HT       0.417000       1.00800           0
     29304 TIP3     2332     TIP3     OH2      OT      -0.834000       15.9994           0
     29305 TIP3     2332     TIP3     H1       HT       0.417000       1.00800           0
     29306 TIP3     2332     TIP3     H2       HT       0.417000       1.00800           0
     29307 TIP3     2333     TIP3     OH2      OT      -0.834000       15.9994           0
     29308 TIP3     2333     TIP3     H1       HT       0.417000       1.00800           0
     29309 TIP3     2333     TIP3     H2       HT       0.417000       1.00800           0
     29310 TIP3     2334     TIP3     OH2      OT      -0.834000       15.9994           0
     29311 TIP3     2334     TIP3     H1       HT       0.417000       1.00800           0
     29312 TIP3     2334     TIP3     H2       HT       0.417000       1.00800           0
     29313 TIP3     2335     TIP3     OH2      OT      -0.834000       15.9994           0
     29314 TIP3     2335     TIP3     H1       HT       0.417000       1.00800           0
     29315 TIP3     2335     TIP3     H2       HT       0.417000       1.00800           0
     29316 TIP3     2336     TIP3     OH2      OT      -0.834000       15.9994           0
     29317 TIP3     2336     TIP3     H1       HT       0.417000       1.00800           0
     29318 TIP3     2336     TIP3     H2       HT       0.417000       1.00800           0
     29319 TIP3     2337     TIP3     OH2      OT      -0.834000       15.9994           0
     29320 TIP3     2337     TIP3     H1       HT       0.417000       1.00800           0
     29321 TIP3     2337     TIP3     H2       HT       0.417000       1.00800           0
     29322 TIP3     2338     TIP3     OH2      OT      -0.834000       15.9994           0
     29323 TIP3     2338     TIP3     H1       HT       0.417000       1.00800           0
     29324 TIP3     2338     TIP3     H2       HT       0.417000       1.00800           0
     29325 TIP3     2339     TIP3     OH2      OT      -0.834000       15.9994           0
     29326 TIP3     2339     TIP3     H1       HT       0.417000       1.00800           0
     29327 TIP3     2339     TIP3     H2       HT       0.417000       1.00800           0
     29328 TIP3     2340     TIP3     OH2      OT      -0.834000       15.9994           0
     29329 TIP3     2340     TIP3     H1       HT       0.417000       1.00800           0
     29330 TIP3     2340     TIP3     H2       HT       0.417000       1.00800           0
     29331 TIP3     2341     TIP3     OH2      OT      -0.834000       15.9994           0
     29332 TIP3     2341     TIP3     H1       HT       0.417000       1.00800           0
     29333 TIP3     2341     TIP3     H2       HT       0.417000       1.00800           0
     29334 TIP3     2342     TIP3     OH2      OT      -0.834000       15.9994           0
     29335 TIP3     2342     TIP3     H1       HT       0.417000       1.00800           0
     29336 TIP3     2342     TIP3     H2       HT       0.417000       1.00800           0
     29337 TIP3     2343     TIP3     OH2      OT      -0.834000       15.9994           0
     29338 TIP3     2343     TIP3     H1       HT       0.417000       1.00800           0
     29339 TIP3     2343     TIP3     H2       HT       0.417000       1.00800           0
     29340 TIP3     2344     TIP3     OH2      OT      -0.834000       15.9994           0
     29341 TIP3     2344     TIP3     H1       HT       0.417000       1.00800           0
     29342 TIP3     2344     TIP3     H2       HT       0.417000       1.00800           0
     29343 TIP3     2345     TIP3     OH2      OT      -0.834000       15.9994           0
     29344 TIP3     2345     TIP3     H1       HT       0.417000       1.00800           0
     29345 TIP3     2345     TIP3     H2       HT       0.417000       1.00800           0
     29346 TIP3     2346     TIP3     OH2      OT      -0.834000       15.9994           0
     29347 TIP3     2346     TIP3     H1       HT       0.417000       1.00800           0
     29348 TIP3     2346     TIP3     H2       HT       0.417000       1.00800           0
     29349 TIP3     2347     TIP3     OH2      OT      -0.834000       15.9994           0
     29350 TIP3     2347     TIP3     H1       HT       0.417000       1.00800           0
     29351 TIP3     2347     TIP3     H2       HT       0.417000       1.00800           0
     29352 TIP3     2348     TIP3     OH2      OT      -0.834000       15.9994           0
     29353 TIP3     2348     TIP3     H1       HT       0.417000       1.00800           0
     29354 TIP3     2348     TIP3     H2       HT       0.417000       1.00800           0
     29355 TIP3     2349     TIP3     OH2      OT      -0.834000       15.9994           0
     29356 TIP3     2349     TIP3     H1       HT       0.417000       1.00800           0
     29357 TIP3     2349     TIP3     H2       HT       0.417000       1.00800           0
     29358 TIP3     2350     TIP3     OH2      OT      -0.834000       15.9994           0
     29359 TIP3     2350     TIP3     H1       HT       0.417000       1.00800           0
     29360 TIP3     2350     TIP3     H2       HT       0.417000       1.00800           0
     29361 TIP3     2351     TIP3     OH2      OT      -0.834000       15.9994           0
     29362 TIP3     2351     TIP3     H1       HT       0.417000       1.00800           0
     29363 TIP3     2351     TIP3     H2       HT       0.417000       1.00800           0
     29364 TIP3     2352     TIP3     OH2      OT      -0.834000       15.9994           0
     29365 TIP3     2352     TIP3     H1       HT       0.417000       1.00800           0
     29366 TIP3     2352     TIP3     H2       HT       0.417000       1.00800           0
     29367 TIP3     2353     TIP3     OH2      OT      -0.834000       15.9994           0
     29368 TIP3     2353     TIP3     H1       HT       0.417000       1.00800           0
     29369 TIP3     2353     TIP3     H2       HT       0.417000       1.00800           0
     29370 TIP3     2354     TIP3     OH2      OT      -0.834000       15.9994           0
     29371 TIP3     2354     TIP3     H1       HT       0.417000       1.00800           0
     29372 TIP3     2354     TIP3     H2       HT       0.417000       1.00800           0
     29373 TIP3     2355     TIP3     OH2      OT      -0.834000       15.9994           0
     29374 TIP3     2355     TIP3     H1       HT       0.417000       1.00800           0
     29375 TIP3     2355     TIP3     H2       HT       0.417000       1.00800           0
     29376 TIP3     2356     TIP3     OH2      OT      -0.834000       15.9994           0
     29377 TIP3     2356     TIP3     H1       HT       0.417000       1.00800           0
     29378 TIP3     2356     TIP3     H2       HT       0.417000       1.00800           0
     29379 TIP3     2357     TIP3     OH2      OT      -0.834000       15.9994           0
     29380 TIP3     2357     TIP3     H1       HT       0.417000       1.00800           0
     29381 TIP3     2357     TIP3     H2       HT       0.417000       1.00800           0
     29382 TIP3     2358     TIP3     OH2      OT      -0.834000       15.9994           0
     29383 TIP3     2358     TIP3     H1       HT       0.417000       1.00800           0
     29384 TIP3     2358     TIP3     H2       HT       0.417000       1.00800           0
     29385 TIP3     2359     TIP3     OH2      OT      -0.834000       15.9994           0
     29386 TIP3     2359     TIP3     H1       HT       0.417000       1.00800           0
     29387 TIP3     2359     TIP3     H2       HT       0.417000       1.00800           0
     29388 TIP3     2360     TIP3     OH2      OT      -0.834000       15.9994           0
     29389 TIP3     2360     TIP3     H1       HT       0.417000       1.00800           0
     29390 TIP3     2360     TIP3     H2       HT       0.417000       1.00800           0
     29391 TIP3     2361     TIP3     OH2      OT      -0.834000       15.9994           0
     29392 TIP3     2361     TIP3     H1       HT       0.417000       1.00800           0
     29393 TIP3     2361     TIP3     H2       HT       0.417000       1.00800           0
     29394 TIP3     2362     TIP3     OH2      OT      -0.834000       15.9994           0
     29395 TIP3     2362     TIP3     H1       HT       0.417000       1.00800           0
     29396 TIP3     2362     TIP3     H2       HT       0.417000       1.00800           0
     29397 TIP3     2363     TIP3     OH2      OT      -0.834000       15.9994           0
     29398 TIP3     2363     TIP3     H1       HT       0.417000       1.00800           0
     29399 TIP3     2363     TIP3     H2       HT       0.417000       1.00800           0
     29400 TIP3     2364     TIP3     OH2      OT      -0.834000       15.9994           0
     29401 TIP3     2364     TIP3     H1       HT       0.417000       1.00800           0
     29402 TIP3     2364     TIP3     H2       HT       0.417000       1.00800           0
     29403 TIP3     2365     TIP3     OH2      OT      -0.834000       15.9994           0
     29404 TIP3     2365     TIP3     H1       HT       0.417000       1.00800           0
     29405 TIP3     2365     TIP3     H2       HT       0.417000       1.00800           0
     29406 TIP3     2366     TIP3     OH2      OT      -0.834000       15.9994           0
     29407 TIP3     2366     TIP3     H1       HT       0.417000       1.00800           0
     29408 TIP3     2366     TIP3     H2       HT       0.417000       1.00800           0
     29409 TIP3     2367     TIP3     OH2      OT      -0.834000       15.9994           0
     29410 TIP3     2367     TIP3     H1       HT       0.417000       1.00800           0
     29411 TIP3     2367     TIP3     H2       HT       0.417000       1.00800           0
     29412 TIP3     2368     TIP3     OH2      OT      -0.834000       15.9994           0
     29413 TIP3     2368     TIP3     H1       HT       0.417000       1.00800           0
     29414 TIP3     2368     TIP3     H2       HT       0.417000       1.00800           0
     29415 TIP3     2369     TIP3     OH2      OT      -0.834000       15.9994           0
     29416 TIP3     2369     TIP3     H1       HT       0.417000       1.00800           0
     29417 TIP3     2369     TIP3     H2       HT       0.417000       1.00800           0
     29418 TIP3     2370     TIP3     OH2      OT      -0.834000       15.9994           0
     29419 TIP3     2370     TIP3     H1       HT       0.417000       1.00800           0
     29420 TIP3     2370     TIP3     H2       HT       0.417000       1.00800           0
     29421 TIP3     2371     TIP3     OH2      OT      -0.834000       15.9994           0
     29422 TIP3     2371     TIP3     H1       HT       0.417000       1.00800           0
     29423 TIP3     2371     TIP3     H2       HT       0.417000       1.00800           0
     29424 TIP3     2372     TIP3     OH2      OT      -0.834000       15.9994           0
     29425 TIP3     2372     TIP3     H1       HT       0.417000       1.00800           0
     29426 TIP3     2372     TIP3     H2       HT       0.417000       1.00800           0
     29427 TIP3     2373     TIP3     OH2      OT      -0.834000       15.9994           0
     29428 TIP3     2373     TIP3     H1       HT       0.417000       1.00800           0
     29429 TIP3     2373     TIP3     H2       HT       0.417000       1.00800           0
     29430 TIP3     2374     TIP3     OH2      OT      -0.834000       15.9994           0
     29431 TIP3     2374     TIP3     H1       HT       0.417000       1.00800           0
     29432 TIP3     2374     TIP3     H2       HT       0.417000       1.00800           0
     29433 TIP3     2375     TIP3     OH2      OT      -0.834000       15.9994           0
     29434 TIP3     2375     TIP3     H1       HT       0.417000       1.00800           0
     29435 TIP3     2375     TIP3     H2       HT       0.417000       1.00800           0
     29436 TIP3     2376     TIP3     OH2      OT      -0.834000       15.9994           0
     29437 TIP3     2376     TIP3     H1       HT       0.417000       1.00800           0
     29438 TIP3     2376     TIP3     H2       HT       0.417000       1.00800           0
     29439 TIP3     2377     TIP3     OH2      OT      -0.834000       15.9994           0
     29440 TIP3     2377     TIP3     H1       HT       0.417000       1.00800           0
     29441 TIP3     2377     TIP3     H2       HT       0.417000       1.00800           0
     29442 TIP3     2378     TIP3     OH2      OT      -0.834000       15.9994           0
     29443 TIP3     2378     TIP3     H1       HT       0.417000       1.00800           0
     29444 TIP3     2378     TIP3     H2       HT       0.417000       1.00800           0
     29445 TIP3     2379     TIP3     OH2      OT      -0.834000       15.9994           0
     29446 TIP3     2379     TIP3     H1       HT       0.417000       1.00800           0
     29447 TIP3     2379     TIP3     H2       HT       0.417000       1.00800           0
     29448 TIP3     2380     TIP3     OH2      OT      -0.834000       15.9994           0
     29449 TIP3     2380     TIP3     H1       HT       0.417000       1.00800           0
     29450 TIP3     2380     TIP3     H2       HT       0.417000       1.00800           0
     29451 TIP3     2381     TIP3     OH2      OT      -0.834000       15.9994           0
     29452 TIP3     2381     TIP3     H1       HT       0.417000       1.00800           0
     29453 TIP3     2381     TIP3     H2       HT       0.417000       1.00800           0
     29454 TIP3     2382     TIP3     OH2      OT      -0.834000       15.9994           0
     29455 TIP3     2382     TIP3     H1       HT       0.417000       1.00800           0
     29456 TIP3     2382     TIP3     H2       HT       0.417000       1.00800           0
     29457 TIP3     2383     TIP3     OH2      OT      -0.834000       15.9994           0
     29458 TIP3     2383     TIP3     H1       HT       0.417000       1.00800           0
     29459 TIP3     2383     TIP3     H2       HT       0.417000       1.00800           0
     29460 TIP3     2384     TIP3     OH2      OT      -0.834000       15.9994           0
     29461 TIP3     2384     TIP3     H1       HT       0.417000       1.00800           0
     29462 TIP3     2384     TIP3     H2       HT       0.417000       1.00800           0
     29463 TIP3     2385     TIP3     OH2      OT      -0.834000       15.9994           0
     29464 TIP3     2385     TIP3     H1       HT       0.417000       1.00800           0
     29465 TIP3     2385     TIP3     H2       HT       0.417000       1.00800           0
     29466 TIP3     2386     TIP3     OH2      OT      -0.834000       15.9994           0
     29467 TIP3     2386     TIP3     H1       HT       0.417000       1.00800           0
     29468 TIP3     2386     TIP3     H2       HT       0.417000       1.00800           0
     29469 TIP3     2387     TIP3     OH2      OT      -0.834000       15.9994           0
     29470 TIP3     2387     TIP3     H1       HT       0.417000       1.00800           0
     29471 TIP3     2387     TIP3     H2       HT       0.417000       1.00800           0
     29472 TIP3     2388     TIP3     OH2      OT      -0.834000       15.9994           0
     29473 TIP3     2388     TIP3     H1       HT       0.417000       1.00800           0
     29474 TIP3     2388     TIP3     H2       HT       0.417000       1.00800           0
     29475 TIP3     2389     TIP3     OH2      OT      -0.834000       15.9994           0
     29476 TIP3     2389     TIP3     H1       HT       0.417000       1.00800           0
     29477 TIP3     2389     TIP3     H2       HT       0.417000       1.00800           0
     29478 TIP3     2390     TIP3     OH2      OT      -0.834000       15.9994           0
     29479 TIP3     2390     TIP3     H1       HT       0.417000       1.00800           0
     29480 TIP3     2390     TIP3     H2       HT       0.417000       1.00800           0
     29481 TIP3     2391     TIP3     OH2      OT      -0.834000       15.9994           0
     29482 TIP3     2391     TIP3     H1       HT       0.417000       1.00800           0
     29483 TIP3     2391     TIP3     H2       HT       0.417000       1.00800           0
     29484 TIP3     2392     TIP3     OH2      OT      -0.834000       15.9994           0
     29485 TIP3     2392     TIP3     H1       HT       0.417000       1.00800           0
     29486 TIP3     2392     TIP3     H2       HT       0.417000       1.00800           0
     29487 TIP3     2393     TIP3     OH2      OT      -0.834000       15.9994           0
     29488 TIP3     2393     TIP3     H1       HT       0.417000       1.00800           0
     29489 TIP3     2393     TIP3     H2       HT       0.417000       1.00800           0
     29490 TIP3     2394     TIP3     OH2      OT      -0.834000       15.9994           0
     29491 TIP3     2394     TIP3     H1       HT       0.417000       1.00800           0
     29492 TIP3     2394     TIP3     H2       HT       0.417000       1.00800           0
     29493 TIP3     2395     TIP3     OH2      OT      -0.834000       15.9994           0
     29494 TIP3     2395     TIP3     H1       HT       0.417000       1.00800           0
     29495 TIP3     2395     TIP3     H2       HT       0.417000       1.00800           0
     29496 TIP3     2396     TIP3     OH2      OT      -0.834000       15.9994           0
     29497 TIP3     2396     TIP3     H1       HT       0.417000       1.00800           0
     29498 TIP3     2396     TIP3     H2       HT       0.417000       1.00800           0
     29499 TIP3     2397     TIP3     OH2      OT      -0.834000       15.9994           0
     29500 TIP3     2397     TIP3     H1       HT       0.417000       1.00800           0
     29501 TIP3     2397     TIP3     H2       HT       0.417000       1.00800           0
     29502 TIP3     2398     TIP3     OH2      OT      -0.834000       15.9994           0
     29503 TIP3     2398     TIP3     H1       HT       0.417000       1.00800           0
     29504 TIP3     2398     TIP3     H2       HT       0.417000       1.00800           0
     29505 TIP3     2399     TIP3     OH2      OT      -0.834000       15.9994           0
     29506 TIP3     2399     TIP3     H1       HT       0.417000       1.00800           0
     29507 TIP3     2399     TIP3     H2       HT       0.417000       1.00800           0
     29508 TIP3     2400     TIP3     OH2      OT      -0.834000       15.9994           0
     29509 TIP3     2400     TIP3     H1       HT       0.417000       1.00800           0
     29510 TIP3     2400     TIP3     H2       HT       0.417000       1.00800           0
     29511 TIP3     2401     TIP3     OH2      OT      -0.834000       15.9994           0
     29512 TIP3     2401     TIP3     H1       HT       0.417000       1.00800           0
     29513 TIP3     2401     TIP3     H2       HT       0.417000       1.00800           0
     29514 TIP3     2402     TIP3     OH2      OT      -0.834000       15.9994           0
     29515 TIP3     2402     TIP3     H1       HT       0.417000       1.00800           0
     29516 TIP3     2402     TIP3     H2       HT       0.417000       1.00800           0
     29517 TIP3     2403     TIP3     OH2      OT      -0.834000       15.9994           0
     29518 TIP3     2403     TIP3     H1       HT       0.417000       1.00800           0
     29519 TIP3     2403     TIP3     H2       HT       0.417000       1.00800           0
     29520 TIP3     2404     TIP3     OH2      OT      -0.834000       15.9994           0
     29521 TIP3     2404     TIP3     H1       HT       0.417000       1.00800           0
     29522 TIP3     2404     TIP3     H2       HT       0.417000       1.00800           0
     29523 TIP3     2405     TIP3     OH2      OT      -0.834000       15.9994           0
     29524 TIP3     2405     TIP3     H1       HT       0.417000       1.00800           0
     29525 TIP3     2405     TIP3     H2       HT       0.417000       1.00800           0
     29526 TIP3     2406     TIP3     OH2      OT      -0.834000       15.9994           0
     29527 TIP3     2406     TIP3     H1       HT       0.417000       1.00800           0
     29528 TIP3     2406     TIP3     H2       HT       0.417000       1.00800           0
     29529 TIP3     2407     TIP3     OH2      OT      -0.834000       15.9994           0
     29530 TIP3     2407     TIP3     H1       HT       0.417000       1.00800           0
     29531 TIP3     2407     TIP3     H2       HT       0.417000       1.00800           0
     29532 TIP3     2408     TIP3     OH2      OT      -0.834000       15.9994           0
     29533 TIP3     2408     TIP3     H1       HT       0.417000       1.00800           0
     29534 TIP3     2408     TIP3     H2       HT       0.417000       1.00800           0
     29535 TIP3     2409     TIP3     OH2      OT      -0.834000       15.9994           0
     29536 TIP3     2409     TIP3     H1       HT       0.417000       1.00800           0
     29537 TIP3     2409     TIP3     H2       HT       0.417000       1.00800           0
     29538 TIP3     2410     TIP3     OH2      OT      -0.834000       15.9994           0
     29539 TIP3     2410     TIP3     H1       HT       0.417000       1.00800           0
     29540 TIP3     2410     TIP3     H2       HT       0.417000       1.00800           0
     29541 TIP3     2411     TIP3     OH2      OT      -0.834000       15.9994           0
     29542 TIP3     2411     TIP3     H1       HT       0.417000       1.00800           0
     29543 TIP3     2411     TIP3     H2       HT       0.417000       1.00800           0
     29544 TIP3     2412     TIP3     OH2      OT      -0.834000       15.9994           0
     29545 TIP3     2412     TIP3     H1       HT       0.417000       1.00800           0
     29546 TIP3     2412     TIP3     H2       HT       0.417000       1.00800           0
     29547 TIP3     2413     TIP3     OH2      OT      -0.834000       15.9994           0
     29548 TIP3     2413     TIP3     H1       HT       0.417000       1.00800           0
     29549 TIP3     2413     TIP3     H2       HT       0.417000       1.00800           0
     29550 TIP3     2414     TIP3     OH2      OT      -0.834000       15.9994           0
     29551 TIP3     2414     TIP3     H1       HT       0.417000       1.00800           0
     29552 TIP3     2414     TIP3     H2       HT       0.417000       1.00800           0
     29553 TIP3     2415     TIP3     OH2      OT      -0.834000       15.9994           0
     29554 TIP3     2415     TIP3     H1       HT       0.417000       1.00800           0
     29555 TIP3     2415     TIP3     H2       HT       0.417000       1.00800           0
     29556 TIP3     2416     TIP3     OH2      OT      -0.834000       15.9994           0
     29557 TIP3     2416     TIP3     H1       HT       0.417000       1.00800           0
     29558 TIP3     2416     TIP3     H2       HT       0.417000       1.00800           0
     29559 TIP3     2417     TIP3     OH2      OT      -0.834000       15.9994           0
     29560 TIP3     2417     TIP3     H1       HT       0.417000       1.00800           0
     29561 TIP3     2417     TIP3     H2       HT       0.417000       1.00800           0
     29562 TIP3     2418     TIP3     OH2      OT      -0.834000       15.9994           0
     29563 TIP3     2418     TIP3     H1       HT       0.417000       1.00800           0
     29564 TIP3     2418     TIP3     H2       HT       0.417000       1.00800           0
     29565 TIP3     2419     TIP3     OH2      OT      -0.834000       15.9994           0
     29566 TIP3     2419     TIP3     H1       HT       0.417000       1.00800           0
     29567 TIP3     2419     TIP3     H2       HT       0.417000       1.00800           0
     29568 TIP3     2420     TIP3     OH2      OT      -0.834000       15.9994           0
     29569 TIP3     2420     TIP3     H1       HT       0.417000       1.00800           0
     29570 TIP3     2420     TIP3     H2       HT       0.417000       1.00800           0
     29571 TIP3     2421     TIP3     OH2      OT      -0.834000       15.9994           0
     29572 TIP3     2421     TIP3     H1       HT       0.417000       1.00800           0
     29573 TIP3     2421     TIP3     H2       HT       0.417000       1.00800           0
     29574 TIP3     2422     TIP3     OH2      OT      -0.834000       15.9994           0
     29575 TIP3     2422     TIP3     H1       HT       0.417000       1.00800           0
     29576 TIP3     2422     TIP3     H2       HT       0.417000       1.00800           0
     29577 TIP3     2423     TIP3     OH2      OT      -0.834000       15.9994           0
     29578 TIP3     2423     TIP3     H1       HT       0.417000       1.00800           0
     29579 TIP3     2423     TIP3     H2       HT       0.417000       1.00800           0
     29580 TIP3     2424     TIP3     OH2      OT      -0.834000       15.9994           0
     29581 TIP3     2424     TIP3     H1       HT       0.417000       1.00800           0
     29582 TIP3     2424     TIP3     H2       HT       0.417000       1.00800           0
     29583 TIP3     2425     TIP3     OH2      OT      -0.834000       15.9994           0
     29584 TIP3     2425     TIP3     H1       HT       0.417000       1.00800           0
     29585 TIP3     2425     TIP3     H2       HT       0.417000       1.00800           0
     29586 TIP3     2426     TIP3     OH2      OT      -0.834000       15.9994           0
     29587 TIP3     2426     TIP3     H1       HT       0.417000       1.00800           0
     29588 TIP3     2426     TIP3     H2       HT       0.417000       1.00800           0
     29589 TIP3     2427     TIP3     OH2      OT      -0.834000       15.9994           0
     29590 TIP3     2427     TIP3     H1       HT       0.417000       1.00800           0
     29591 TIP3     2427     TIP3     H2       HT       0.417000       1.00800           0
     29592 TIP3     2428     TIP3     OH2      OT      -0.834000       15.9994           0
     29593 TIP3     2428     TIP3     H1       HT       0.417000       1.00800           0
     29594 TIP3     2428     TIP3     H2       HT       0.417000       1.00800           0
     29595 TIP3     2429     TIP3     OH2      OT      -0.834000       15.9994           0
     29596 TIP3     2429     TIP3     H1       HT       0.417000       1.00800           0
     29597 TIP3     2429     TIP3     H2       HT       0.417000       1.00800           0
     29598 TIP3     2430     TIP3     OH2      OT      -0.834000       15.9994           0
     29599 TIP3     2430     TIP3     H1       HT       0.417000       1.00800           0
     29600 TIP3     2430     TIP3     H2       HT       0.417000       1.00800           0
     29601 TIP3     2431     TIP3     OH2      OT      -0.834000       15.9994           0
     29602 TIP3     2431     TIP3     H1       HT       0.417000       1.00800           0
     29603 TIP3     2431     TIP3     H2       HT       0.417000       1.00800           0
     29604 TIP3     2432     TIP3     OH2      OT      -0.834000       15.9994           0
     29605 TIP3     2432     TIP3     H1       HT       0.417000       1.00800           0
     29606 TIP3     2432     TIP3     H2       HT       0.417000       1.00800           0
     29607 TIP3     2433     TIP3     OH2      OT      -0.834000       15.9994           0
     29608 TIP3     2433     TIP3     H1       HT       0.417000       1.00800           0
     29609 TIP3     2433     TIP3     H2       HT       0.417000       1.00800           0
     29610 TIP3     2434     TIP3     OH2      OT      -0.834000       15.9994           0
     29611 TIP3     2434     TIP3     H1       HT       0.417000       1.00800           0
     29612 TIP3     2434     TIP3     H2       HT       0.417000       1.00800           0
     29613 TIP3     2435     TIP3     OH2      OT      -0.834000       15.9994           0
     29614 TIP3     2435     TIP3     H1       HT       0.417000       1.00800           0
     29615 TIP3     2435     TIP3     H2       HT       0.417000       1.00800           0
     29616 TIP3     2436     TIP3     OH2      OT      -0.834000       15.9994           0
     29617 TIP3     2436     TIP3     H1       HT       0.417000       1.00800           0
     29618 TIP3     2436     TIP3     H2       HT       0.417000       1.00800           0
     29619 TIP3     2437     TIP3     OH2      OT      -0.834000       15.9994           0
     29620 TIP3     2437     TIP3     H1       HT       0.417000       1.00800           0
     29621 TIP3     2437     TIP3     H2       HT       0.417000       1.00800           0
     29622 TIP3     2438     TIP3     OH2      OT      -0.834000       15.9994           0
     29623 TIP3     2438     TIP3     H1       HT       0.417000       1.00800           0
     29624 TIP3     2438     TIP3     H2       HT       0.417000       1.00800           0
     29625 TIP3     2439     TIP3     OH2      OT      -0.834000       15.9994           0
     29626 TIP3     2439     TIP3     H1       HT       0.417000       1.00800           0
     29627 TIP3     2439     TIP3     H2       HT       0.417000       1.00800           0
     29628 TIP3     2440     TIP3     OH2      OT      -0.834000       15.9994           0
     29629 TIP3     2440     TIP3     H1       HT       0.417000       1.00800           0
     29630 TIP3     2440     TIP3     H2       HT       0.417000       1.00800           0
     29631 TIP3     2441     TIP3     OH2      OT      -0.834000       15.9994           0
     29632 TIP3     2441     TIP3     H1       HT       0.417000       1.00800           0
     29633 TIP3     2441     TIP3     H2       HT       0.417000       1.00800           0
     29634 TIP3     2442     TIP3     OH2      OT      -0.834000       15.9994           0
     29635 TIP3     2442     TIP3     H1       HT       0.417000       1.00800           0
     29636 TIP3     2442     TIP3     H2       HT       0.417000       1.00800           0
     29637 TIP3     2443     TIP3     OH2      OT      -0.834000       15.9994           0
     29638 TIP3     2443     TIP3     H1       HT       0.417000       1.00800           0
     29639 TIP3     2443     TIP3     H2       HT       0.417000       1.00800           0
     29640 TIP3     2444     TIP3     OH2      OT      -0.834000       15.9994           0
     29641 TIP3     2444     TIP3     H1       HT       0.417000       1.00800           0
     29642 TIP3     2444     TIP3     H2       HT       0.417000       1.00800           0
     29643 TIP3     2445     TIP3     OH2      OT      -0.834000       15.9994           0
     29644 TIP3     2445     TIP3     H1       HT       0.417000       1.00800           0
     29645 TIP3     2445     TIP3     H2       HT       0.417000       1.00800           0
     29646 TIP3     2446     TIP3     OH2      OT      -0.834000       15.9994           0
     29647 TIP3     2446     TIP3     H1       HT       0.417000       1.00800           0
     29648 TIP3     2446     TIP3     H2       HT       0.417000       1.00800           0
     29649 TIP3     2447     TIP3     OH2      OT      -0.834000       15.9994           0
     29650 TIP3     2447     TIP3     H1       HT       0.417000       1.00800           0
     29651 TIP3     2447     TIP3     H2       HT       0.417000       1.00800           0
     29652 TIP3     2448     TIP3     OH2      OT      -0.834000       15.9994           0
     29653 TIP3     2448     TIP3     H1       HT       0.417000       1.00800           0
     29654 TIP3     2448     TIP3     H2       HT       0.417000       1.00800           0
     29655 TIP3     2449     TIP3     OH2      OT      -0.834000       15.9994           0
     29656 TIP3     2449     TIP3     H1       HT       0.417000       1.00800           0
     29657 TIP3     2449     TIP3     H2       HT       0.417000       1.00800           0
     29658 TIP3     2450     TIP3     OH2      OT      -0.834000       15.9994           0
     29659 TIP3     2450     TIP3     H1       HT       0.417000       1.00800           0
     29660 TIP3     2450     TIP3     H2       HT       0.417000       1.00800           0
     29661 TIP3     2451     TIP3     OH2      OT      -0.834000       15.9994           0
     29662 TIP3     2451     TIP3     H1       HT       0.417000       1.00800           0
     29663 TIP3     2451     TIP3     H2       HT       0.417000       1.00800           0
     29664 TIP3     2452     TIP3     OH2      OT      -0.834000       15.9994           0
     29665 TIP3     2452     TIP3     H1       HT       0.417000       1.00800           0
     29666 TIP3     2452     TIP3     H2       HT       0.417000       1.00800           0
     29667 TIP3     2453     TIP3     OH2      OT      -0.834000       15.9994           0
     29668 TIP3     2453     TIP3     H1       HT       0.417000       1.00800           0
     29669 TIP3     2453     TIP3     H2       HT       0.417000       1.00800           0
     29670 TIP3     2454     TIP3     OH2      OT      -0.834000       15.9994           0
     29671 TIP3     2454     TIP3     H1       HT       0.417000       1.00800           0
     29672 TIP3     2454     TIP3     H2       HT       0.417000       1.00800           0
     29673 TIP3     2455     TIP3     OH2      OT      -0.834000       15.9994           0
     29674 TIP3     2455     TIP3     H1       HT       0.417000       1.00800           0
     29675 TIP3     2455     TIP3     H2       HT       0.417000       1.00800           0
     29676 TIP3     2456     TIP3     OH2      OT      -0.834000       15.9994           0
     29677 TIP3     2456     TIP3     H1       HT       0.417000       1.00800           0
     29678 TIP3     2456     TIP3     H2       HT       0.417000       1.00800           0
     29679 TIP3     2457     TIP3     OH2      OT      -0.834000       15.9994           0
     29680 TIP3     2457     TIP3     H1       HT       0.417000       1.00800           0
     29681 TIP3     2457     TIP3     H2       HT       0.417000       1.00800           0
     29682 TIP3     2458     TIP3     OH2      OT      -0.834000       15.9994           0
     29683 TIP3     2458     TIP3     H1       HT       0.417000       1.00800           0
     29684 TIP3     2458     TIP3     H2       HT       0.417000       1.00800           0
     29685 TIP3     2459     TIP3     OH2      OT      -0.834000       15.9994           0
     29686 TIP3     2459     TIP3     H1       HT       0.417000       1.00800           0
     29687 TIP3     2459     TIP3     H2       HT       0.417000       1.00800           0
     29688 TIP3     2460     TIP3     OH2      OT      -0.834000       15.9994           0
     29689 TIP3     2460     TIP3     H1       HT       0.417000       1.00800           0
     29690 TIP3     2460     TIP3     H2       HT       0.417000       1.00800           0
     29691 TIP3     2461     TIP3     OH2      OT      -0.834000       15.9994           0
     29692 TIP3     2461     TIP3     H1       HT       0.417000       1.00800           0
     29693 TIP3     2461     TIP3     H2       HT       0.417000       1.00800           0
     29694 TIP3     2462     TIP3     OH2      OT      -0.834000       15.9994           0
     29695 TIP3     2462     TIP3     H1       HT       0.417000       1.00800           0
     29696 TIP3     2462     TIP3     H2       HT       0.417000       1.00800           0
     29697 TIP3     2463     TIP3     OH2      OT      -0.834000       15.9994           0
     29698 TIP3     2463     TIP3     H1       HT       0.417000       1.00800           0
     29699 TIP3     2463     TIP3     H2       HT       0.417000       1.00800           0
     29700 TIP3     2464     TIP3     OH2      OT      -0.834000       15.9994           0
     29701 TIP3     2464     TIP3     H1       HT       0.417000       1.00800           0
     29702 TIP3     2464     TIP3     H2       HT       0.417000       1.00800           0
     29703 TIP3     2465     TIP3     OH2      OT      -0.834000       15.9994           0
     29704 TIP3     2465     TIP3     H1       HT       0.417000       1.00800           0
     29705 TIP3     2465     TIP3     H2       HT       0.417000       1.00800           0
     29706 TIP3     2466     TIP3     OH2      OT      -0.834000       15.9994           0
     29707 TIP3     2466     TIP3     H1       HT       0.417000       1.00800           0
     29708 TIP3     2466     TIP3     H2       HT       0.417000       1.00800           0
     29709 TIP3     2467     TIP3     OH2      OT      -0.834000       15.9994           0
     29710 TIP3     2467     TIP3     H1       HT       0.417000       1.00800           0
     29711 TIP3     2467     TIP3     H2       HT       0.417000       1.00800           0
     29712 TIP3     2468     TIP3     OH2      OT      -0.834000       15.9994           0
     29713 TIP3     2468     TIP3     H1       HT       0.417000       1.00800           0
     29714 TIP3     2468     TIP3     H2       HT       0.417000       1.00800           0
     29715 TIP3     2469     TIP3     OH2      OT      -0.834000       15.9994           0
     29716 TIP3     2469     TIP3     H1       HT       0.417000       1.00800           0
     29717 TIP3     2469     TIP3     H2       HT       0.417000       1.00800           0
     29718 TIP3     2470     TIP3     OH2      OT      -0.834000       15.9994           0
     29719 TIP3     2470     TIP3     H1       HT       0.417000       1.00800           0
     29720 TIP3     2470     TIP3     H2       HT       0.417000       1.00800           0
     29721 TIP3     2471     TIP3     OH2      OT      -0.834000       15.9994           0
     29722 TIP3     2471     TIP3     H1       HT       0.417000       1.00800           0
     29723 TIP3     2471     TIP3     H2       HT       0.417000       1.00800           0
     29724 TIP3     2472     TIP3     OH2      OT      -0.834000       15.9994           0
     29725 TIP3     2472     TIP3     H1       HT       0.417000       1.00800           0
     29726 TIP3     2472     TIP3     H2       HT       0.417000       1.00800           0
     29727 TIP3     2473     TIP3     OH2      OT      -0.834000       15.9994           0
     29728 TIP3     2473     TIP3     H1       HT       0.417000       1.00800           0
     29729 TIP3     2473     TIP3     H2       HT       0.417000       1.00800           0
     29730 TIP3     2474     TIP3     OH2      OT      -0.834000       15.9994           0
     29731 TIP3     2474     TIP3     H1       HT       0.417000       1.00800           0
     29732 TIP3     2474     TIP3     H2       HT       0.417000       1.00800           0
     29733 TIP3     2475     TIP3     OH2      OT      -0.834000       15.9994           0
     29734 TIP3     2475     TIP3     H1       HT       0.417000       1.00800           0
     29735 TIP3     2475     TIP3     H2       HT       0.417000       1.00800           0
     29736 TIP3     2476     TIP3     OH2      OT      -0.834000       15.9994           0
     29737 TIP3     2476     TIP3     H1       HT       0.417000       1.00800           0
     29738 TIP3     2476     TIP3     H2       HT       0.417000       1.00800           0
     29739 TIP3     2477     TIP3     OH2      OT      -0.834000       15.9994           0
     29740 TIP3     2477     TIP3     H1       HT       0.417000       1.00800           0
     29741 TIP3     2477     TIP3     H2       HT       0.417000       1.00800           0
     29742 TIP3     2478     TIP3     OH2      OT      -0.834000       15.9994           0
     29743 TIP3     2478     TIP3     H1       HT       0.417000       1.00800           0
     29744 TIP3     2478     TIP3     H2       HT       0.417000       1.00800           0
     29745 TIP3     2479     TIP3     OH2      OT      -0.834000       15.9994           0
     29746 TIP3     2479     TIP3     H1       HT       0.417000       1.00800           0
     29747 TIP3     2479     TIP3     H2       HT       0.417000       1.00800           0
     29748 TIP3     2480     TIP3     OH2      OT      -0.834000       15.9994           0
     29749 TIP3     2480     TIP3     H1       HT       0.417000       1.00800           0
     29750 TIP3     2480     TIP3     H2       HT       0.417000       1.00800           0
     29751 TIP3     2481     TIP3     OH2      OT      -0.834000       15.9994           0
     29752 TIP3     2481     TIP3     H1       HT       0.417000       1.00800           0
     29753 TIP3     2481     TIP3     H2       HT       0.417000       1.00800           0
     29754 TIP3     2482     TIP3     OH2      OT      -0.834000       15.9994           0
     29755 TIP3     2482     TIP3     H1       HT       0.417000       1.00800           0
     29756 TIP3     2482     TIP3     H2       HT       0.417000       1.00800           0
     29757 TIP3     2483     TIP3     OH2      OT      -0.834000       15.9994           0
     29758 TIP3     2483     TIP3     H1       HT       0.417000       1.00800           0
     29759 TIP3     2483     TIP3     H2       HT       0.417000       1.00800           0
     29760 TIP3     2484     TIP3     OH2      OT      -0.834000       15.9994           0
     29761 TIP3     2484     TIP3     H1       HT       0.417000       1.00800           0
     29762 TIP3     2484     TIP3     H2       HT       0.417000       1.00800           0
     29763 TIP3     2485     TIP3     OH2      OT      -0.834000       15.9994           0
     29764 TIP3     2485     TIP3     H1       HT       0.417000       1.00800           0
     29765 TIP3     2485     TIP3     H2       HT       0.417000       1.00800           0
     29766 TIP3     2486     TIP3     OH2      OT      -0.834000       15.9994           0
     29767 TIP3     2486     TIP3     H1       HT       0.417000       1.00800           0
     29768 TIP3     2486     TIP3     H2       HT       0.417000       1.00800           0
     29769 TIP3     2487     TIP3     OH2      OT      -0.834000       15.9994           0
     29770 TIP3     2487     TIP3     H1       HT       0.417000       1.00800           0
     29771 TIP3     2487     TIP3     H2       HT       0.417000       1.00800           0
     29772 TIP3     2488     TIP3     OH2      OT      -0.834000       15.9994           0
     29773 TIP3     2488     TIP3     H1       HT       0.417000       1.00800           0
     29774 TIP3     2488     TIP3     H2       HT       0.417000       1.00800           0
     29775 TIP3     2489     TIP3     OH2      OT      -0.834000       15.9994           0
     29776 TIP3     2489     TIP3     H1       HT       0.417000       1.00800           0
     29777 TIP3     2489     TIP3     H2       HT       0.417000       1.00800           0
     29778 TIP3     2490     TIP3     OH2      OT      -0.834000       15.9994           0
     29779 TIP3     2490     TIP3     H1       HT       0.417000       1.00800           0
     29780 TIP3     2490     TIP3     H2       HT       0.417000       1.00800           0
     29781 TIP3     2491     TIP3     OH2      OT      -0.834000       15.9994           0
     29782 TIP3     2491     TIP3     H1       HT       0.417000       1.00800           0
     29783 TIP3     2491     TIP3     H2       HT       0.417000       1.00800           0
     29784 TIP3     2492     TIP3     OH2      OT      -0.834000       15.9994           0
     29785 TIP3     2492     TIP3     H1       HT       0.417000       1.00800           0
     29786 TIP3     2492     TIP3     H2       HT       0.417000       1.00800           0
     29787 TIP3     2493     TIP3     OH2      OT      -0.834000       15.9994           0
     29788 TIP3     2493     TIP3     H1       HT       0.417000       1.00800           0
     29789 TIP3     2493     TIP3     H2       HT       0.417000       1.00800           0
     29790 TIP3     2494     TIP3     OH2      OT      -0.834000       15.9994           0
     29791 TIP3     2494     TIP3     H1       HT       0.417000       1.00800           0
     29792 TIP3     2494     TIP3     H2       HT       0.417000       1.00800           0
     29793 TIP3     2495     TIP3     OH2      OT      -0.834000       15.9994           0
     29794 TIP3     2495     TIP3     H1       HT       0.417000       1.00800           0
     29795 TIP3     2495     TIP3     H2       HT       0.417000       1.00800           0
     29796 TIP3     2496     TIP3     OH2      OT      -0.834000       15.9994           0
     29797 TIP3     2496     TIP3     H1       HT       0.417000       1.00800           0
     29798 TIP3     2496     TIP3     H2       HT       0.417000       1.00800           0
     29799 TIP3     2497     TIP3     OH2      OT      -0.834000       15.9994           0
     29800 TIP3     2497     TIP3     H1       HT       0.417000       1.00800           0
     29801 TIP3     2497     TIP3     H2       HT       0.417000       1.00800           0
     29802 TIP3     2498     TIP3     OH2      OT      -0.834000       15.9994           0
     29803 TIP3     2498     TIP3     H1       HT       0.417000       1.00800           0
     29804 TIP3     2498     TIP3     H2       HT       0.417000       1.00800           0
     29805 TIP3     2499     TIP3     OH2      OT      -0.834000       15.9994           0
     29806 TIP3     2499     TIP3     H1       HT       0.417000       1.00800           0
     29807 TIP3     2499     TIP3     H2       HT       0.417000       1.00800           0
     29808 TIP3     2500     TIP3     OH2      OT      -0.834000       15.9994           0
     29809 TIP3     2500     TIP3     H1       HT       0.417000       1.00800           0
     29810 TIP3     2500     TIP3     H2       HT       0.417000       1.00800           0
     29811 TIP3     2501     TIP3     OH2      OT      -0.834000       15.9994           0
     29812 TIP3     2501     TIP3     H1       HT       0.417000       1.00800           0
     29813 TIP3     2501     TIP3     H2       HT       0.417000       1.00800           0
     29814 TIP3     2502     TIP3     OH2      OT      -0.834000       15.9994           0
     29815 TIP3     2502     TIP3     H1       HT       0.417000       1.00800           0
     29816 TIP3     2502     TIP3     H2       HT       0.417000       1.00800           0
     29817 TIP3     2503     TIP3     OH2      OT      -0.834000       15.9994           0
     29818 TIP3     2503     TIP3     H1       HT       0.417000       1.00800           0
     29819 TIP3     2503     TIP3     H2       HT       0.417000       1.00800           0
     29820 TIP3     2504     TIP3     OH2      OT      -0.834000       15.9994           0
     29821 TIP3     2504     TIP3     H1       HT       0.417000       1.00800           0
     29822 TIP3     2504     TIP3     H2       HT       0.417000       1.00800           0
     29823 TIP3     2505     TIP3     OH2      OT      -0.834000       15.9994           0
     29824 TIP3     2505     TIP3     H1       HT       0.417000       1.00800           0
     29825 TIP3     2505     TIP3     H2       HT       0.417000       1.00800           0
     29826 TIP3     2506     TIP3     OH2      OT      -0.834000       15.9994           0
     29827 TIP3     2506     TIP3     H1       HT       0.417000       1.00800           0
     29828 TIP3     2506     TIP3     H2       HT       0.417000       1.00800           0
     29829 TIP3     2507     TIP3     OH2      OT      -0.834000       15.9994           0
     29830 TIP3     2507     TIP3     H1       HT       0.417000       1.00800           0
     29831 TIP3     2507     TIP3     H2       HT       0.417000       1.00800           0
     29832 TIP3     2508     TIP3     OH2      OT      -0.834000       15.9994           0
     29833 TIP3     2508     TIP3     H1       HT       0.417000       1.00800           0
     29834 TIP3     2508     TIP3     H2       HT       0.417000       1.00800           0
     29835 TIP3     2509     TIP3     OH2      OT      -0.834000       15.9994           0
     29836 TIP3     2509     TIP3     H1       HT       0.417000       1.00800           0
     29837 TIP3     2509     TIP3     H2       HT       0.417000       1.00800           0
     29838 TIP3     2510     TIP3     OH2      OT      -0.834000       15.9994           0
     29839 TIP3     2510     TIP3     H1       HT       0.417000       1.00800           0
     29840 TIP3     2510     TIP3     H2       HT       0.417000       1.00800           0
     29841 TIP3     2511     TIP3     OH2      OT      -0.834000       15.9994           0
     29842 TIP3     2511     TIP3     H1       HT       0.417000       1.00800           0
     29843 TIP3     2511     TIP3     H2       HT       0.417000       1.00800           0
     29844 TIP3     2512     TIP3     OH2      OT      -0.834000       15.9994           0
     29845 TIP3     2512     TIP3     H1       HT       0.417000       1.00800           0
     29846 TIP3     2512     TIP3     H2       HT       0.417000       1.00800           0
     29847 TIP3     2513     TIP3     OH2      OT      -0.834000       15.9994           0
     29848 TIP3     2513     TIP3     H1       HT       0.417000       1.00800           0
     29849 TIP3     2513     TIP3     H2       HT       0.417000       1.00800           0
     29850 TIP3     2514     TIP3     OH2      OT      -0.834000       15.9994           0
     29851 TIP3     2514     TIP3     H1       HT       0.417000       1.00800           0
     29852 TIP3     2514     TIP3     H2       HT       0.417000       1.00800           0
     29853 TIP3     2515     TIP3     OH2      OT      -0.834000       15.9994           0
     29854 TIP3     2515     TIP3     H1       HT       0.417000       1.00800           0
     29855 TIP3     2515     TIP3     H2       HT       0.417000       1.00800           0
     29856 TIP3     2516     TIP3     OH2      OT      -0.834000       15.9994           0
     29857 TIP3     2516     TIP3     H1       HT       0.417000       1.00800           0
     29858 TIP3     2516     TIP3     H2       HT       0.417000       1.00800           0
     29859 TIP3     2517     TIP3     OH2      OT      -0.834000       15.9994           0
     29860 TIP3     2517     TIP3     H1       HT       0.417000       1.00800           0
     29861 TIP3     2517     TIP3     H2       HT       0.417000       1.00800           0
     29862 TIP3     2518     TIP3     OH2      OT      -0.834000       15.9994           0
     29863 TIP3     2518     TIP3     H1       HT       0.417000       1.00800           0
     29864 TIP3     2518     TIP3     H2       HT       0.417000       1.00800           0
     29865 TIP3     2519     TIP3     OH2      OT      -0.834000       15.9994           0
     29866 TIP3     2519     TIP3     H1       HT       0.417000       1.00800           0
     29867 TIP3     2519     TIP3     H2       HT       0.417000       1.00800           0
     29868 TIP3     2520     TIP3     OH2      OT      -0.834000       15.9994           0
     29869 TIP3     2520     TIP3     H1       HT       0.417000       1.00800           0
     29870 TIP3     2520     TIP3     H2       HT       0.417000       1.00800           0
     29871 TIP3     2521     TIP3     OH2      OT      -0.834000       15.9994           0
     29872 TIP3     2521     TIP3     H1       HT       0.417000       1.00800           0
     29873 TIP3     2521     TIP3     H2       HT       0.417000       1.00800           0
     29874 TIP3     2522     TIP3     OH2      OT      -0.834000       15.9994           0
     29875 TIP3     2522     TIP3     H1       HT       0.417000       1.00800           0
     29876 TIP3     2522     TIP3     H2       HT       0.417000       1.00800           0
     29877 TIP3     2523     TIP3     OH2      OT      -0.834000       15.9994           0
     29878 TIP3     2523     TIP3     H1       HT       0.417000       1.00800           0
     29879 TIP3     2523     TIP3     H2       HT       0.417000       1.00800           0
     29880 TIP3     2524     TIP3     OH2      OT      -0.834000       15.9994           0
     29881 TIP3     2524     TIP3     H1       HT       0.417000       1.00800           0
     29882 TIP3     2524     TIP3     H2       HT       0.417000       1.00800           0
     29883 TIP3     2525     TIP3     OH2      OT      -0.834000       15.9994           0
     29884 TIP3     2525     TIP3     H1       HT       0.417000       1.00800           0
     29885 TIP3     2525     TIP3     H2       HT       0.417000       1.00800           0
     29886 TIP3     2526     TIP3     OH2      OT      -0.834000       15.9994           0
     29887 TIP3     2526     TIP3     H1       HT       0.417000       1.00800           0
     29888 TIP3     2526     TIP3     H2       HT       0.417000       1.00800           0
     29889 TIP3     2527     TIP3     OH2      OT      -0.834000       15.9994           0
     29890 TIP3     2527     TIP3     H1       HT       0.417000       1.00800           0
     29891 TIP3     2527     TIP3     H2       HT       0.417000       1.00800           0
     29892 TIP3     2528     TIP3     OH2      OT      -0.834000       15.9994           0
     29893 TIP3     2528     TIP3     H1       HT       0.417000       1.00800           0
     29894 TIP3     2528     TIP3     H2       HT       0.417000       1.00800           0
     29895 TIP3     2529     TIP3     OH2      OT      -0.834000       15.9994           0
     29896 TIP3     2529     TIP3     H1       HT       0.417000       1.00800           0
     29897 TIP3     2529     TIP3     H2       HT       0.417000       1.00800           0
     29898 TIP3     2530     TIP3     OH2      OT      -0.834000       15.9994           0
     29899 TIP3     2530     TIP3     H1       HT       0.417000       1.00800           0
     29900 TIP3     2530     TIP3     H2       HT       0.417000       1.00800           0
     29901 TIP3     2531     TIP3     OH2      OT      -0.834000       15.9994           0
     29902 TIP3     2531     TIP3     H1       HT       0.417000       1.00800           0
     29903 TIP3     2531     TIP3     H2       HT       0.417000       1.00800           0
     29904 TIP3     2532     TIP3     OH2      OT      -0.834000       15.9994           0
     29905 TIP3     2532     TIP3     H1       HT       0.417000       1.00800           0
     29906 TIP3     2532     TIP3     H2       HT       0.417000       1.00800           0
     29907 TIP3     2533     TIP3     OH2      OT      -0.834000       15.9994           0
     29908 TIP3     2533     TIP3     H1       HT       0.417000       1.00800           0
     29909 TIP3     2533     TIP3     H2       HT       0.417000       1.00800           0
     29910 TIP3     2534     TIP3     OH2      OT      -0.834000       15.9994           0
     29911 TIP3     2534     TIP3     H1       HT       0.417000       1.00800           0
     29912 TIP3     2534     TIP3     H2       HT       0.417000       1.00800           0
     29913 TIP3     2535     TIP3     OH2      OT      -0.834000       15.9994           0
     29914 TIP3     2535     TIP3     H1       HT       0.417000       1.00800           0
     29915 TIP3     2535     TIP3     H2       HT       0.417000       1.00800           0
     29916 TIP3     2536     TIP3     OH2      OT      -0.834000       15.9994           0
     29917 TIP3     2536     TIP3     H1       HT       0.417000       1.00800           0
     29918 TIP3     2536     TIP3     H2       HT       0.417000       1.00800           0
     29919 TIP3     2537     TIP3     OH2      OT      -0.834000       15.9994           0
     29920 TIP3     2537     TIP3     H1       HT       0.417000       1.00800           0
     29921 TIP3     2537     TIP3     H2       HT       0.417000       1.00800           0
     29922 TIP3     2538     TIP3     OH2      OT      -0.834000       15.9994           0
     29923 TIP3     2538     TIP3     H1       HT       0.417000       1.00800           0
     29924 TIP3     2538     TIP3     H2       HT       0.417000       1.00800           0
     29925 TIP3     2539     TIP3     OH2      OT      -0.834000       15.9994           0
     29926 TIP3     2539     TIP3     H1       HT       0.417000       1.00800           0
     29927 TIP3     2539     TIP3     H2       HT       0.417000       1.00800           0
     29928 TIP3     2540     TIP3     OH2      OT      -0.834000       15.9994           0
     29929 TIP3     2540     TIP3     H1       HT       0.417000       1.00800           0
     29930 TIP3     2540     TIP3     H2       HT       0.417000       1.00800           0
     29931 TIP3     2541     TIP3     OH2      OT      -0.834000       15.9994           0
     29932 TIP3     2541     TIP3     H1       HT       0.417000       1.00800           0
     29933 TIP3     2541     TIP3     H2       HT       0.417000       1.00800           0
     29934 TIP3     2542     TIP3     OH2      OT      -0.834000       15.9994           0
     29935 TIP3     2542     TIP3     H1       HT       0.417000       1.00800           0
     29936 TIP3     2542     TIP3     H2       HT       0.417000       1.00800           0
     29937 TIP3     2543     TIP3     OH2      OT      -0.834000       15.9994           0
     29938 TIP3     2543     TIP3     H1       HT       0.417000       1.00800           0
     29939 TIP3     2543     TIP3     H2       HT       0.417000       1.00800           0
     29940 TIP3     2544     TIP3     OH2      OT      -0.834000       15.9994           0
     29941 TIP3     2544     TIP3     H1       HT       0.417000       1.00800           0
     29942 TIP3     2544     TIP3     H2       HT       0.417000       1.00800           0
     29943 TIP3     2545     TIP3     OH2      OT      -0.834000       15.9994           0
     29944 TIP3     2545     TIP3     H1       HT       0.417000       1.00800           0
     29945 TIP3     2545     TIP3     H2       HT       0.417000       1.00800           0
     29946 TIP3     2546     TIP3     OH2      OT      -0.834000       15.9994           0
     29947 TIP3     2546     TIP3     H1       HT       0.417000       1.00800           0
     29948 TIP3     2546     TIP3     H2       HT       0.417000       1.00800           0
     29949 TIP3     2547     TIP3     OH2      OT      -0.834000       15.9994           0
     29950 TIP3     2547     TIP3     H1       HT       0.417000       1.00800           0
     29951 TIP3     2547     TIP3     H2       HT       0.417000       1.00800           0
     29952 TIP3     2548     TIP3     OH2      OT      -0.834000       15.9994           0
     29953 TIP3     2548     TIP3     H1       HT       0.417000       1.00800           0
     29954 TIP3     2548     TIP3     H2       HT       0.417000       1.00800           0
     29955 TIP3     2549     TIP3     OH2      OT      -0.834000       15.9994           0
     29956 TIP3     2549     TIP3     H1       HT       0.417000       1.00800           0
     29957 TIP3     2549     TIP3     H2       HT       0.417000       1.00800           0
     29958 TIP3     2550     TIP3     OH2      OT      -0.834000       15.9994           0
     29959 TIP3     2550     TIP3     H1       HT       0.417000       1.00800           0
     29960 TIP3     2550     TIP3     H2       HT       0.417000       1.00800           0
     29961 TIP3     2551     TIP3     OH2      OT      -0.834000       15.9994           0
     29962 TIP3     2551     TIP3     H1       HT       0.417000       1.00800           0
     29963 TIP3     2551     TIP3     H2       HT       0.417000       1.00800           0
     29964 TIP3     2552     TIP3     OH2      OT      -0.834000       15.9994           0
     29965 TIP3     2552     TIP3     H1       HT       0.417000       1.00800           0
     29966 TIP3     2552     TIP3     H2       HT       0.417000       1.00800           0
     29967 TIP3     2553     TIP3     OH2      OT      -0.834000       15.9994           0
     29968 TIP3     2553     TIP3     H1       HT       0.417000       1.00800           0
     29969 TIP3     2553     TIP3     H2       HT       0.417000       1.00800           0
     29970 TIP3     2554     TIP3     OH2      OT      -0.834000       15.9994           0
     29971 TIP3     2554     TIP3     H1       HT       0.417000       1.00800           0
     29972 TIP3     2554     TIP3     H2       HT       0.417000       1.00800           0
     29973 TIP3     2555     TIP3     OH2      OT      -0.834000       15.9994           0
     29974 TIP3     2555     TIP3     H1       HT       0.417000       1.00800           0
     29975 TIP3     2555     TIP3     H2       HT       0.417000       1.00800           0
     29976 TIP3     2556     TIP3     OH2      OT      -0.834000       15.9994           0
     29977 TIP3     2556     TIP3     H1       HT       0.417000       1.00800           0
     29978 TIP3     2556     TIP3     H2       HT       0.417000       1.00800           0
     29979 TIP3     2557     TIP3     OH2      OT      -0.834000       15.9994           0
     29980 TIP3     2557     TIP3     H1       HT       0.417000       1.00800           0
     29981 TIP3     2557     TIP3     H2       HT       0.417000       1.00800           0
     29982 TIP3     2558     TIP3     OH2      OT      -0.834000       15.9994           0
     29983 TIP3     2558     TIP3     H1       HT       0.417000       1.00800           0
     29984 TIP3     2558     TIP3     H2       HT       0.417000       1.00800           0
     29985 TIP3     2559     TIP3     OH2      OT      -0.834000       15.9994           0
     29986 TIP3     2559     TIP3     H1       HT       0.417000       1.00800           0
     29987 TIP3     2559     TIP3     H2       HT       0.417000       1.00800           0
     29988 TIP3     2560     TIP3     OH2      OT      -0.834000       15.9994           0
     29989 TIP3     2560     TIP3     H1       HT       0.417000       1.00800           0
     29990 TIP3     2560     TIP3     H2       HT       0.417000       1.00800           0
     29991 TIP3     2561     TIP3     OH2      OT      -0.834000       15.9994           0
     29992 TIP3     2561     TIP3     H1       HT       0.417000       1.00800           0
     29993 TIP3     2561     TIP3     H2       HT       0.417000       1.00800           0
     29994 TIP3     2562     TIP3     OH2      OT      -0.834000       15.9994           0
     29995 TIP3     2562     TIP3     H1       HT       0.417000       1.00800           0
     29996 TIP3     2562     TIP3     H2       HT       0.417000       1.00800           0
     29997 TIP3     2563     TIP3     OH2      OT      -0.834000       15.9994           0
     29998 TIP3     2563     TIP3     H1       HT       0.417000       1.00800           0
     29999 TIP3     2563     TIP3     H2       HT       0.417000       1.00800           0
     30000 TIP3     2564     TIP3     OH2      OT      -0.834000       15.9994           0
     30001 TIP3     2564     TIP3     H1       HT       0.417000       1.00800           0
     30002 TIP3     2564     TIP3     H2       HT       0.417000       1.00800           0
     30003 TIP3     2565     TIP3     OH2      OT      -0.834000       15.9994           0
     30004 TIP3     2565     TIP3     H1       HT       0.417000       1.00800           0
     30005 TIP3     2565     TIP3     H2       HT       0.417000       1.00800           0
     30006 TIP3     2566     TIP3     OH2      OT      -0.834000       15.9994           0
     30007 TIP3     2566     TIP3     H1       HT       0.417000       1.00800           0
     30008 TIP3     2566     TIP3     H2       HT       0.417000       1.00800           0
     30009 TIP3     2567     TIP3     OH2      OT      -0.834000       15.9994           0
     30010 TIP3     2567     TIP3     H1       HT       0.417000       1.00800           0
     30011 TIP3     2567     TIP3     H2       HT       0.417000       1.00800           0
     30012 TIP3     2568     TIP3     OH2      OT      -0.834000       15.9994           0
     30013 TIP3     2568     TIP3     H1       HT       0.417000       1.00800           0
     30014 TIP3     2568     TIP3     H2       HT       0.417000       1.00800           0
     30015 TIP3     2569     TIP3     OH2      OT      -0.834000       15.9994           0
     30016 TIP3     2569     TIP3     H1       HT       0.417000       1.00800           0
     30017 TIP3     2569     TIP3     H2       HT       0.417000       1.00800           0
     30018 TIP3     2570     TIP3     OH2      OT      -0.834000       15.9994           0
     30019 TIP3     2570     TIP3     H1       HT       0.417000       1.00800           0
     30020 TIP3     2570     TIP3     H2       HT       0.417000       1.00800           0
     30021 TIP3     2571     TIP3     OH2      OT      -0.834000       15.9994           0
     30022 TIP3     2571     TIP3     H1       HT       0.417000       1.00800           0
     30023 TIP3     2571     TIP3     H2       HT       0.417000       1.00800           0
     30024 TIP3     2572     TIP3     OH2      OT      -0.834000       15.9994           0
     30025 TIP3     2572     TIP3     H1       HT       0.417000       1.00800           0
     30026 TIP3     2572     TIP3     H2       HT       0.417000       1.00800           0
     30027 TIP3     2573     TIP3     OH2      OT      -0.834000       15.9994           0
     30028 TIP3     2573     TIP3     H1       HT       0.417000       1.00800           0
     30029 TIP3     2573     TIP3     H2       HT       0.417000       1.00800           0
     30030 TIP3     2574     TIP3     OH2      OT      -0.834000       15.9994           0
     30031 TIP3     2574     TIP3     H1       HT       0.417000       1.00800           0
     30032 TIP3     2574     TIP3     H2       HT       0.417000       1.00800           0
     30033 TIP3     2575     TIP3     OH2      OT      -0.834000       15.9994           0
     30034 TIP3     2575     TIP3     H1       HT       0.417000       1.00800           0
     30035 TIP3     2575     TIP3     H2       HT       0.417000       1.00800           0
     30036 TIP3     2576     TIP3     OH2      OT      -0.834000       15.9994           0
     30037 TIP3     2576     TIP3     H1       HT       0.417000       1.00800           0
     30038 TIP3     2576     TIP3     H2       HT       0.417000       1.00800           0
     30039 TIP3     2577     TIP3     OH2      OT      -0.834000       15.9994           0
     30040 TIP3     2577     TIP3     H1       HT       0.417000       1.00800           0
     30041 TIP3     2577     TIP3     H2       HT       0.417000       1.00800           0
     30042 TIP3     2578     TIP3     OH2      OT      -0.834000       15.9994           0
     30043 TIP3     2578     TIP3     H1       HT       0.417000       1.00800           0
     30044 TIP3     2578     TIP3     H2       HT       0.417000       1.00800           0
     30045 TIP3     2579     TIP3     OH2      OT      -0.834000       15.9994           0
     30046 TIP3     2579     TIP3     H1       HT       0.417000       1.00800           0
     30047 TIP3     2579     TIP3     H2       HT       0.417000       1.00800           0
     30048 TIP3     2580     TIP3     OH2      OT      -0.834000       15.9994           0
     30049 TIP3     2580     TIP3     H1       HT       0.417000       1.00800           0
     30050 TIP3     2580     TIP3     H2       HT       0.417000       1.00800           0
     30051 TIP3     2581     TIP3     OH2      OT      -0.834000       15.9994           0
     30052 TIP3     2581     TIP3     H1       HT       0.417000       1.00800           0
     30053 TIP3     2581     TIP3     H2       HT       0.417000       1.00800           0
     30054 TIP3     2582     TIP3     OH2      OT      -0.834000       15.9994           0
     30055 TIP3     2582     TIP3     H1       HT       0.417000       1.00800           0
     30056 TIP3     2582     TIP3     H2       HT       0.417000       1.00800           0
     30057 TIP3     2583     TIP3     OH2      OT      -0.834000       15.9994           0
     30058 TIP3     2583     TIP3     H1       HT       0.417000       1.00800           0
     30059 TIP3     2583     TIP3     H2       HT       0.417000       1.00800           0
     30060 TIP3     2584     TIP3     OH2      OT      -0.834000       15.9994           0
     30061 TIP3     2584     TIP3     H1       HT       0.417000       1.00800           0
     30062 TIP3     2584     TIP3     H2       HT       0.417000       1.00800           0
     30063 TIP3     2585     TIP3     OH2      OT      -0.834000       15.9994           0
     30064 TIP3     2585     TIP3     H1       HT       0.417000       1.00800           0
     30065 TIP3     2585     TIP3     H2       HT       0.417000       1.00800           0
     30066 TIP3     2586     TIP3     OH2      OT      -0.834000       15.9994           0
     30067 TIP3     2586     TIP3     H1       HT       0.417000       1.00800           0
     30068 TIP3     2586     TIP3     H2       HT       0.417000       1.00800           0
     30069 TIP3     2587     TIP3     OH2      OT      -0.834000       15.9994           0
     30070 TIP3     2587     TIP3     H1       HT       0.417000       1.00800           0
     30071 TIP3     2587     TIP3     H2       HT       0.417000       1.00800           0
     30072 TIP3     2588     TIP3     OH2      OT      -0.834000       15.9994           0
     30073 TIP3     2588     TIP3     H1       HT       0.417000       1.00800           0
     30074 TIP3     2588     TIP3     H2       HT       0.417000       1.00800           0
     30075 TIP3     2589     TIP3     OH2      OT      -0.834000       15.9994           0
     30076 TIP3     2589     TIP3     H1       HT       0.417000       1.00800           0
     30077 TIP3     2589     TIP3     H2       HT       0.417000       1.00800           0
     30078 TIP3     2590     TIP3     OH2      OT      -0.834000       15.9994           0
     30079 TIP3     2590     TIP3     H1       HT       0.417000       1.00800           0
     30080 TIP3     2590     TIP3     H2       HT       0.417000       1.00800           0
     30081 TIP3     2591     TIP3     OH2      OT      -0.834000       15.9994           0
     30082 TIP3     2591     TIP3     H1       HT       0.417000       1.00800           0
     30083 TIP3     2591     TIP3     H2       HT       0.417000       1.00800           0
     30084 TIP3     2592     TIP3     OH2      OT      -0.834000       15.9994           0
     30085 TIP3     2592     TIP3     H1       HT       0.417000       1.00800           0
     30086 TIP3     2592     TIP3     H2       HT       0.417000       1.00800           0
     30087 TIP3     2593     TIP3     OH2      OT      -0.834000       15.9994           0
     30088 TIP3     2593     TIP3     H1       HT       0.417000       1.00800           0
     30089 TIP3     2593     TIP3     H2       HT       0.417000       1.00800           0
     30090 TIP3     2594     TIP3     OH2      OT      -0.834000       15.9994           0
     30091 TIP3     2594     TIP3     H1       HT       0.417000       1.00800           0
     30092 TIP3     2594     TIP3     H2       HT       0.417000       1.00800           0
     30093 TIP3     2595     TIP3     OH2      OT      -0.834000       15.9994           0
     30094 TIP3     2595     TIP3     H1       HT       0.417000       1.00800           0
     30095 TIP3     2595     TIP3     H2       HT       0.417000       1.00800           0
     30096 TIP3     2596     TIP3     OH2      OT      -0.834000       15.9994           0
     30097 TIP3     2596     TIP3     H1       HT       0.417000       1.00800           0
     30098 TIP3     2596     TIP3     H2       HT       0.417000       1.00800           0
     30099 TIP3     2597     TIP3     OH2      OT      -0.834000       15.9994           0
     30100 TIP3     2597     TIP3     H1       HT       0.417000       1.00800           0
     30101 TIP3     2597     TIP3     H2       HT       0.417000       1.00800           0
     30102 TIP3     2598     TIP3     OH2      OT      -0.834000       15.9994           0
     30103 TIP3     2598     TIP3     H1       HT       0.417000       1.00800           0
     30104 TIP3     2598     TIP3     H2       HT       0.417000       1.00800           0
     30105 TIP3     2599     TIP3     OH2      OT      -0.834000       15.9994           0
     30106 TIP3     2599     TIP3     H1       HT       0.417000       1.00800           0
     30107 TIP3     2599     TIP3     H2       HT       0.417000       1.00800           0
     30108 TIP3     2600     TIP3     OH2      OT      -0.834000       15.9994           0
     30109 TIP3     2600     TIP3     H1       HT       0.417000       1.00800           0
     30110 TIP3     2600     TIP3     H2       HT       0.417000       1.00800           0
     30111 TIP3     2601     TIP3     OH2      OT      -0.834000       15.9994           0
     30112 TIP3     2601     TIP3     H1       HT       0.417000       1.00800           0
     30113 TIP3     2601     TIP3     H2       HT       0.417000       1.00800           0
     30114 TIP3     2602     TIP3     OH2      OT      -0.834000       15.9994           0
     30115 TIP3     2602     TIP3     H1       HT       0.417000       1.00800           0
     30116 TIP3     2602     TIP3     H2       HT       0.417000       1.00800           0
     30117 TIP3     2603     TIP3     OH2      OT      -0.834000       15.9994           0
     30118 TIP3     2603     TIP3     H1       HT       0.417000       1.00800           0
     30119 TIP3     2603     TIP3     H2       HT       0.417000       1.00800           0
     30120 TIP3     2604     TIP3     OH2      OT      -0.834000       15.9994           0
     30121 TIP3     2604     TIP3     H1       HT       0.417000       1.00800           0
     30122 TIP3     2604     TIP3     H2       HT       0.417000       1.00800           0
     30123 TIP3     2605     TIP3     OH2      OT      -0.834000       15.9994           0
     30124 TIP3     2605     TIP3     H1       HT       0.417000       1.00800           0
     30125 TIP3     2605     TIP3     H2       HT       0.417000       1.00800           0
     30126 TIP3     2606     TIP3     OH2      OT      -0.834000       15.9994           0
     30127 TIP3     2606     TIP3     H1       HT       0.417000       1.00800           0
     30128 TIP3     2606     TIP3     H2       HT       0.417000       1.00800           0
     30129 TIP3     2607     TIP3     OH2      OT      -0.834000       15.9994           0
     30130 TIP3     2607     TIP3     H1       HT       0.417000       1.00800           0
     30131 TIP3     2607     TIP3     H2       HT       0.417000       1.00800           0
     30132 TIP3     2608     TIP3     OH2      OT      -0.834000       15.9994           0
     30133 TIP3     2608     TIP3     H1       HT       0.417000       1.00800           0
     30134 TIP3     2608     TIP3     H2       HT       0.417000       1.00800           0
     30135 TIP3     2609     TIP3     OH2      OT      -0.834000       15.9994           0
     30136 TIP3     2609     TIP3     H1       HT       0.417000       1.00800           0
     30137 TIP3     2609     TIP3     H2       HT       0.417000       1.00800           0
     30138 TIP3     2610     TIP3     OH2      OT      -0.834000       15.9994           0
     30139 TIP3     2610     TIP3     H1       HT       0.417000       1.00800           0
     30140 TIP3     2610     TIP3     H2       HT       0.417000       1.00800           0
     30141 TIP3     2611     TIP3     OH2      OT      -0.834000       15.9994           0
     30142 TIP3     2611     TIP3     H1       HT       0.417000       1.00800           0
     30143 TIP3     2611     TIP3     H2       HT       0.417000       1.00800           0
     30144 TIP3     2612     TIP3     OH2      OT      -0.834000       15.9994           0
     30145 TIP3     2612     TIP3     H1       HT       0.417000       1.00800           0
     30146 TIP3     2612     TIP3     H2       HT       0.417000       1.00800           0
     30147 TIP3     2613     TIP3     OH2      OT      -0.834000       15.9994           0
     30148 TIP3     2613     TIP3     H1       HT       0.417000       1.00800           0
     30149 TIP3     2613     TIP3     H2       HT       0.417000       1.00800           0
     30150 TIP3     2614     TIP3     OH2      OT      -0.834000       15.9994           0
     30151 TIP3     2614     TIP3     H1       HT       0.417000       1.00800           0
     30152 TIP3     2614     TIP3     H2       HT       0.417000       1.00800           0
     30153 TIP3     2615     TIP3     OH2      OT      -0.834000       15.9994           0
     30154 TIP3     2615     TIP3     H1       HT       0.417000       1.00800           0
     30155 TIP3     2615     TIP3     H2       HT       0.417000       1.00800           0
     30156 TIP3     2616     TIP3     OH2      OT      -0.834000       15.9994           0
     30157 TIP3     2616     TIP3     H1       HT       0.417000       1.00800           0
     30158 TIP3     2616     TIP3     H2       HT       0.417000       1.00800           0
     30159 TIP3     2617     TIP3     OH2      OT      -0.834000       15.9994           0
     30160 TIP3     2617     TIP3     H1       HT       0.417000       1.00800           0
     30161 TIP3     2617     TIP3     H2       HT       0.417000       1.00800           0
     30162 TIP3     2618     TIP3     OH2      OT      -0.834000       15.9994           0
     30163 TIP3     2618     TIP3     H1       HT       0.417000       1.00800           0
     30164 TIP3     2618     TIP3     H2       HT       0.417000       1.00800           0
     30165 TIP3     2619     TIP3     OH2      OT      -0.834000       15.9994           0
     30166 TIP3     2619     TIP3     H1       HT       0.417000       1.00800           0
     30167 TIP3     2619     TIP3     H2       HT       0.417000       1.00800           0
     30168 TIP3     2620     TIP3     OH2      OT      -0.834000       15.9994           0
     30169 TIP3     2620     TIP3     H1       HT       0.417000       1.00800           0
     30170 TIP3     2620     TIP3     H2       HT       0.417000       1.00800           0
     30171 TIP3     2621     TIP3     OH2      OT      -0.834000       15.9994           0
     30172 TIP3     2621     TIP3     H1       HT       0.417000       1.00800           0
     30173 TIP3     2621     TIP3     H2       HT       0.417000       1.00800           0
     30174 TIP3     2622     TIP3     OH2      OT      -0.834000       15.9994           0
     30175 TIP3     2622     TIP3     H1       HT       0.417000       1.00800           0
     30176 TIP3     2622     TIP3     H2       HT       0.417000       1.00800           0
     30177 TIP3     2623     TIP3     OH2      OT      -0.834000       15.9994           0
     30178 TIP3     2623     TIP3     H1       HT       0.417000       1.00800           0
     30179 TIP3     2623     TIP3     H2       HT       0.417000       1.00800           0
     30180 TIP3     2624     TIP3     OH2      OT      -0.834000       15.9994           0
     30181 TIP3     2624     TIP3     H1       HT       0.417000       1.00800           0
     30182 TIP3     2624     TIP3     H2       HT       0.417000       1.00800           0
     30183 TIP3     2625     TIP3     OH2      OT      -0.834000       15.9994           0
     30184 TIP3     2625     TIP3     H1       HT       0.417000       1.00800           0
     30185 TIP3     2625     TIP3     H2       HT       0.417000       1.00800           0
     30186 TIP3     2626     TIP3     OH2      OT      -0.834000       15.9994           0
     30187 TIP3     2626     TIP3     H1       HT       0.417000       1.00800           0
     30188 TIP3     2626     TIP3     H2       HT       0.417000       1.00800           0
     30189 TIP3     2627     TIP3     OH2      OT      -0.834000       15.9994           0
     30190 TIP3     2627     TIP3     H1       HT       0.417000       1.00800           0
     30191 TIP3     2627     TIP3     H2       HT       0.417000       1.00800           0
     30192 TIP3     2628     TIP3     OH2      OT      -0.834000       15.9994           0
     30193 TIP3     2628     TIP3     H1       HT       0.417000       1.00800           0
     30194 TIP3     2628     TIP3     H2       HT       0.417000       1.00800           0
     30195 TIP3     2629     TIP3     OH2      OT      -0.834000       15.9994           0
     30196 TIP3     2629     TIP3     H1       HT       0.417000       1.00800           0
     30197 TIP3     2629     TIP3     H2       HT       0.417000       1.00800           0
     30198 TIP3     2630     TIP3     OH2      OT      -0.834000       15.9994           0
     30199 TIP3     2630     TIP3     H1       HT       0.417000       1.00800           0
     30200 TIP3     2630     TIP3     H2       HT       0.417000       1.00800           0
     30201 TIP3     2631     TIP3     OH2      OT      -0.834000       15.9994           0
     30202 TIP3     2631     TIP3     H1       HT       0.417000       1.00800           0
     30203 TIP3     2631     TIP3     H2       HT       0.417000       1.00800           0
     30204 TIP3     2632     TIP3     OH2      OT      -0.834000       15.9994           0
     30205 TIP3     2632     TIP3     H1       HT       0.417000       1.00800           0
     30206 TIP3     2632     TIP3     H2       HT       0.417000       1.00800           0
     30207 TIP3     2633     TIP3     OH2      OT      -0.834000       15.9994           0
     30208 TIP3     2633     TIP3     H1       HT       0.417000       1.00800           0
     30209 TIP3     2633     TIP3     H2       HT       0.417000       1.00800           0
     30210 TIP3     2634     TIP3     OH2      OT      -0.834000       15.9994           0
     30211 TIP3     2634     TIP3     H1       HT       0.417000       1.00800           0
     30212 TIP3     2634     TIP3     H2       HT       0.417000       1.00800           0
     30213 TIP3     2635     TIP3     OH2      OT      -0.834000       15.9994           0
     30214 TIP3     2635     TIP3     H1       HT       0.417000       1.00800           0
     30215 TIP3     2635     TIP3     H2       HT       0.417000       1.00800           0
     30216 TIP3     2636     TIP3     OH2      OT      -0.834000       15.9994           0
     30217 TIP3     2636     TIP3     H1       HT       0.417000       1.00800           0
     30218 TIP3     2636     TIP3     H2       HT       0.417000       1.00800           0
     30219 TIP3     2637     TIP3     OH2      OT      -0.834000       15.9994           0
     30220 TIP3     2637     TIP3     H1       HT       0.417000       1.00800           0
     30221 TIP3     2637     TIP3     H2       HT       0.417000       1.00800           0
     30222 TIP3     2638     TIP3     OH2      OT      -0.834000       15.9994           0
     30223 TIP3     2638     TIP3     H1       HT       0.417000       1.00800           0
     30224 TIP3     2638     TIP3     H2       HT       0.417000       1.00800           0
     30225 TIP3     2639     TIP3     OH2      OT      -0.834000       15.9994           0
     30226 TIP3     2639     TIP3     H1       HT       0.417000       1.00800           0
     30227 TIP3     2639     TIP3     H2       HT       0.417000       1.00800           0
     30228 TIP3     2640     TIP3     OH2      OT      -0.834000       15.9994           0
     30229 TIP3     2640     TIP3     H1       HT       0.417000       1.00800           0
     30230 TIP3     2640     TIP3     H2       HT       0.417000       1.00800           0
     30231 TIP3     2641     TIP3     OH2      OT      -0.834000       15.9994           0
     30232 TIP3     2641     TIP3     H1       HT       0.417000       1.00800           0
     30233 TIP3     2641     TIP3     H2       HT       0.417000       1.00800           0
     30234 TIP3     2642     TIP3     OH2      OT      -0.834000       15.9994           0
     30235 TIP3     2642     TIP3     H1       HT       0.417000       1.00800           0
     30236 TIP3     2642     TIP3     H2       HT       0.417000       1.00800           0
     30237 TIP3     2643     TIP3     OH2      OT      -0.834000       15.9994           0
     30238 TIP3     2643     TIP3     H1       HT       0.417000       1.00800           0
     30239 TIP3     2643     TIP3     H2       HT       0.417000       1.00800           0
     30240 TIP3     2644     TIP3     OH2      OT      -0.834000       15.9994           0
     30241 TIP3     2644     TIP3     H1       HT       0.417000       1.00800           0
     30242 TIP3     2644     TIP3     H2       HT       0.417000       1.00800           0
     30243 TIP3     2645     TIP3     OH2      OT      -0.834000       15.9994           0
     30244 TIP3     2645     TIP3     H1       HT       0.417000       1.00800           0
     30245 TIP3     2645     TIP3     H2       HT       0.417000       1.00800           0
     30246 TIP3     2646     TIP3     OH2      OT      -0.834000       15.9994           0
     30247 TIP3     2646     TIP3     H1       HT       0.417000       1.00800           0
     30248 TIP3     2646     TIP3     H2       HT       0.417000       1.00800           0
     30249 TIP3     2647     TIP3     OH2      OT      -0.834000       15.9994           0
     30250 TIP3     2647     TIP3     H1       HT       0.417000       1.00800           0
     30251 TIP3     2647     TIP3     H2       HT       0.417000       1.00800           0
     30252 TIP3     2648     TIP3     OH2      OT      -0.834000       15.9994           0
     30253 TIP3     2648     TIP3     H1       HT       0.417000       1.00800           0
     30254 TIP3     2648     TIP3     H2       HT       0.417000       1.00800           0
     30255 TIP3     2649     TIP3     OH2      OT      -0.834000       15.9994           0
     30256 TIP3     2649     TIP3     H1       HT       0.417000       1.00800           0
     30257 TIP3     2649     TIP3     H2       HT       0.417000       1.00800           0
     30258 TIP3     2650     TIP3     OH2      OT      -0.834000       15.9994           0
     30259 TIP3     2650     TIP3     H1       HT       0.417000       1.00800           0
     30260 TIP3     2650     TIP3     H2       HT       0.417000       1.00800           0
     30261 TIP3     2651     TIP3     OH2      OT      -0.834000       15.9994           0
     30262 TIP3     2651     TIP3     H1       HT       0.417000       1.00800           0
     30263 TIP3     2651     TIP3     H2       HT       0.417000       1.00800           0
     30264 TIP3     2652     TIP3     OH2      OT      -0.834000       15.9994           0
     30265 TIP3     2652     TIP3     H1       HT       0.417000       1.00800           0
     30266 TIP3     2652     TIP3     H2       HT       0.417000       1.00800           0
     30267 TIP3     2653     TIP3     OH2      OT      -0.834000       15.9994           0
     30268 TIP3     2653     TIP3     H1       HT       0.417000       1.00800           0
     30269 TIP3     2653     TIP3     H2       HT       0.417000       1.00800           0
     30270 TIP3     2654     TIP3     OH2      OT      -0.834000       15.9994           0
     30271 TIP3     2654     TIP3     H1       HT       0.417000       1.00800           0
     30272 TIP3     2654     TIP3     H2       HT       0.417000       1.00800           0
     30273 TIP3     2655     TIP3     OH2      OT      -0.834000       15.9994           0
     30274 TIP3     2655     TIP3     H1       HT       0.417000       1.00800           0
     30275 TIP3     2655     TIP3     H2       HT       0.417000       1.00800           0
     30276 TIP3     2656     TIP3     OH2      OT      -0.834000       15.9994           0
     30277 TIP3     2656     TIP3     H1       HT       0.417000       1.00800           0
     30278 TIP3     2656     TIP3     H2       HT       0.417000       1.00800           0
     30279 TIP3     2657     TIP3     OH2      OT      -0.834000       15.9994           0
     30280 TIP3     2657     TIP3     H1       HT       0.417000       1.00800           0
     30281 TIP3     2657     TIP3     H2       HT       0.417000       1.00800           0
     30282 TIP3     2658     TIP3     OH2      OT      -0.834000       15.9994           0
     30283 TIP3     2658     TIP3     H1       HT       0.417000       1.00800           0
     30284 TIP3     2658     TIP3     H2       HT       0.417000       1.00800           0
     30285 TIP3     2659     TIP3     OH2      OT      -0.834000       15.9994           0
     30286 TIP3     2659     TIP3     H1       HT       0.417000       1.00800           0
     30287 TIP3     2659     TIP3     H2       HT       0.417000       1.00800           0
     30288 TIP3     2660     TIP3     OH2      OT      -0.834000       15.9994           0
     30289 TIP3     2660     TIP3     H1       HT       0.417000       1.00800           0
     30290 TIP3     2660     TIP3     H2       HT       0.417000       1.00800           0
     30291 TIP3     2661     TIP3     OH2      OT      -0.834000       15.9994           0
     30292 TIP3     2661     TIP3     H1       HT       0.417000       1.00800           0
     30293 TIP3     2661     TIP3     H2       HT       0.417000       1.00800           0
     30294 TIP3     2662     TIP3     OH2      OT      -0.834000       15.9994           0
     30295 TIP3     2662     TIP3     H1       HT       0.417000       1.00800           0
     30296 TIP3     2662     TIP3     H2       HT       0.417000       1.00800           0
     30297 TIP3     2663     TIP3     OH2      OT      -0.834000       15.9994           0
     30298 TIP3     2663     TIP3     H1       HT       0.417000       1.00800           0
     30299 TIP3     2663     TIP3     H2       HT       0.417000       1.00800           0
     30300 TIP3     2664     TIP3     OH2      OT      -0.834000       15.9994           0
     30301 TIP3     2664     TIP3     H1       HT       0.417000       1.00800           0
     30302 TIP3     2664     TIP3     H2       HT       0.417000       1.00800           0
     30303 TIP3     2665     TIP3     OH2      OT      -0.834000       15.9994           0
     30304 TIP3     2665     TIP3     H1       HT       0.417000       1.00800           0
     30305 TIP3     2665     TIP3     H2       HT       0.417000       1.00800           0
     30306 TIP3     2666     TIP3     OH2      OT      -0.834000       15.9994           0
     30307 TIP3     2666     TIP3     H1       HT       0.417000       1.00800           0
     30308 TIP3     2666     TIP3     H2       HT       0.417000       1.00800           0
     30309 TIP3     2667     TIP3     OH2      OT      -0.834000       15.9994           0
     30310 TIP3     2667     TIP3     H1       HT       0.417000       1.00800           0
     30311 TIP3     2667     TIP3     H2       HT       0.417000       1.00800           0
     30312 TIP3     2668     TIP3     OH2      OT      -0.834000       15.9994           0
     30313 TIP3     2668     TIP3     H1       HT       0.417000       1.00800           0
     30314 TIP3     2668     TIP3     H2       HT       0.417000       1.00800           0
     30315 TIP3     2669     TIP3     OH2      OT      -0.834000       15.9994           0
     30316 TIP3     2669     TIP3     H1       HT       0.417000       1.00800           0
     30317 TIP3     2669     TIP3     H2       HT       0.417000       1.00800           0
     30318 TIP3     2670     TIP3     OH2      OT      -0.834000       15.9994           0
     30319 TIP3     2670     TIP3     H1       HT       0.417000       1.00800           0
     30320 TIP3     2670     TIP3     H2       HT       0.417000       1.00800           0
     30321 TIP3     2671     TIP3     OH2      OT      -0.834000       15.9994           0
     30322 TIP3     2671     TIP3     H1       HT       0.417000       1.00800           0
     30323 TIP3     2671     TIP3     H2       HT       0.417000       1.00800           0
     30324 TIP3     2672     TIP3     OH2      OT      -0.834000       15.9994           0
     30325 TIP3     2672     TIP3     H1       HT       0.417000       1.00800           0
     30326 TIP3     2672     TIP3     H2       HT       0.417000       1.00800           0
     30327 TIP3     2673     TIP3     OH2      OT      -0.834000       15.9994           0
     30328 TIP3     2673     TIP3     H1       HT       0.417000       1.00800           0
     30329 TIP3     2673     TIP3     H2       HT       0.417000       1.00800           0
     30330 TIP3     2674     TIP3     OH2      OT      -0.834000       15.9994           0
     30331 TIP3     2674     TIP3     H1       HT       0.417000       1.00800           0
     30332 TIP3     2674     TIP3     H2       HT       0.417000       1.00800           0
     30333 TIP3     2675     TIP3     OH2      OT      -0.834000       15.9994           0
     30334 TIP3     2675     TIP3     H1       HT       0.417000       1.00800           0
     30335 TIP3     2675     TIP3     H2       HT       0.417000       1.00800           0
     30336 TIP3     2676     TIP3     OH2      OT      -0.834000       15.9994           0
     30337 TIP3     2676     TIP3     H1       HT       0.417000       1.00800           0
     30338 TIP3     2676     TIP3     H2       HT       0.417000       1.00800           0
     30339 TIP3     2677     TIP3     OH2      OT      -0.834000       15.9994           0
     30340 TIP3     2677     TIP3     H1       HT       0.417000       1.00800           0
     30341 TIP3     2677     TIP3     H2       HT       0.417000       1.00800           0
     30342 TIP3     2678     TIP3     OH2      OT      -0.834000       15.9994           0
     30343 TIP3     2678     TIP3     H1       HT       0.417000       1.00800           0
     30344 TIP3     2678     TIP3     H2       HT       0.417000       1.00800           0
     30345 TIP3     2679     TIP3     OH2      OT      -0.834000       15.9994           0
     30346 TIP3     2679     TIP3     H1       HT       0.417000       1.00800           0
     30347 TIP3     2679     TIP3     H2       HT       0.417000       1.00800           0
     30348 TIP3     2680     TIP3     OH2      OT      -0.834000       15.9994           0
     30349 TIP3     2680     TIP3     H1       HT       0.417000       1.00800           0
     30350 TIP3     2680     TIP3     H2       HT       0.417000       1.00800           0
     30351 TIP3     2681     TIP3     OH2      OT      -0.834000       15.9994           0
     30352 TIP3     2681     TIP3     H1       HT       0.417000       1.00800           0
     30353 TIP3     2681     TIP3     H2       HT       0.417000       1.00800           0
     30354 TIP3     2682     TIP3     OH2      OT      -0.834000       15.9994           0
     30355 TIP3     2682     TIP3     H1       HT       0.417000       1.00800           0
     30356 TIP3     2682     TIP3     H2       HT       0.417000       1.00800           0
     30357 TIP3     2683     TIP3     OH2      OT      -0.834000       15.9994           0
     30358 TIP3     2683     TIP3     H1       HT       0.417000       1.00800           0
     30359 TIP3     2683     TIP3     H2       HT       0.417000       1.00800           0
     30360 TIP3     2684     TIP3     OH2      OT      -0.834000       15.9994           0
     30361 TIP3     2684     TIP3     H1       HT       0.417000       1.00800           0
     30362 TIP3     2684     TIP3     H2       HT       0.417000       1.00800           0
     30363 TIP3     2685     TIP3     OH2      OT      -0.834000       15.9994           0
     30364 TIP3     2685     TIP3     H1       HT       0.417000       1.00800           0
     30365 TIP3     2685     TIP3     H2       HT       0.417000       1.00800           0
     30366 TIP3     2686     TIP3     OH2      OT      -0.834000       15.9994           0
     30367 TIP3     2686     TIP3     H1       HT       0.417000       1.00800           0
     30368 TIP3     2686     TIP3     H2       HT       0.417000       1.00800           0
     30369 TIP3     2687     TIP3     OH2      OT      -0.834000       15.9994           0
     30370 TIP3     2687     TIP3     H1       HT       0.417000       1.00800           0
     30371 TIP3     2687     TIP3     H2       HT       0.417000       1.00800           0
     30372 TIP3     2688     TIP3     OH2      OT      -0.834000       15.9994           0
     30373 TIP3     2688     TIP3     H1       HT       0.417000       1.00800           0
     30374 TIP3     2688     TIP3     H2       HT       0.417000       1.00800           0
     30375 TIP3     2689     TIP3     OH2      OT      -0.834000       15.9994           0
     30376 TIP3     2689     TIP3     H1       HT       0.417000       1.00800           0
     30377 TIP3     2689     TIP3     H2       HT       0.417000       1.00800           0
     30378 TIP3     2690     TIP3     OH2      OT      -0.834000       15.9994           0
     30379 TIP3     2690     TIP3     H1       HT       0.417000       1.00800           0
     30380 TIP3     2690     TIP3     H2       HT       0.417000       1.00800           0
     30381 TIP3     2691     TIP3     OH2      OT      -0.834000       15.9994           0
     30382 TIP3     2691     TIP3     H1       HT       0.417000       1.00800           0
     30383 TIP3     2691     TIP3     H2       HT       0.417000       1.00800           0
     30384 TIP3     2692     TIP3     OH2      OT      -0.834000       15.9994           0
     30385 TIP3     2692     TIP3     H1       HT       0.417000       1.00800           0
     30386 TIP3     2692     TIP3     H2       HT       0.417000       1.00800           0
     30387 TIP3     2693     TIP3     OH2      OT      -0.834000       15.9994           0
     30388 TIP3     2693     TIP3     H1       HT       0.417000       1.00800           0
     30389 TIP3     2693     TIP3     H2       HT       0.417000       1.00800           0
     30390 TIP3     2694     TIP3     OH2      OT      -0.834000       15.9994           0
     30391 TIP3     2694     TIP3     H1       HT       0.417000       1.00800           0
     30392 TIP3     2694     TIP3     H2       HT       0.417000       1.00800           0
     30393 TIP3     2695     TIP3     OH2      OT      -0.834000       15.9994           0
     30394 TIP3     2695     TIP3     H1       HT       0.417000       1.00800           0
     30395 TIP3     2695     TIP3     H2       HT       0.417000       1.00800           0
     30396 TIP3     2696     TIP3     OH2      OT      -0.834000       15.9994           0
     30397 TIP3     2696     TIP3     H1       HT       0.417000       1.00800           0
     30398 TIP3     2696     TIP3     H2       HT       0.417000       1.00800           0
     30399 TIP3     2697     TIP3     OH2      OT      -0.834000       15.9994           0
     30400 TIP3     2697     TIP3     H1       HT       0.417000       1.00800           0
     30401 TIP3     2697     TIP3     H2       HT       0.417000       1.00800           0
     30402 TIP3     2698     TIP3     OH2      OT      -0.834000       15.9994           0
     30403 TIP3     2698     TIP3     H1       HT       0.417000       1.00800           0
     30404 TIP3     2698     TIP3     H2       HT       0.417000       1.00800           0
     30405 TIP3     2699     TIP3     OH2      OT      -0.834000       15.9994           0
     30406 TIP3     2699     TIP3     H1       HT       0.417000       1.00800           0
     30407 TIP3     2699     TIP3     H2       HT       0.417000       1.00800           0
     30408 TIP3     2700     TIP3     OH2      OT      -0.834000       15.9994           0
     30409 TIP3     2700     TIP3     H1       HT       0.417000       1.00800           0
     30410 TIP3     2700     TIP3     H2       HT       0.417000       1.00800           0
     30411 TIP3     2701     TIP3     OH2      OT      -0.834000       15.9994           0
     30412 TIP3     2701     TIP3     H1       HT       0.417000       1.00800           0
     30413 TIP3     2701     TIP3     H2       HT       0.417000       1.00800           0
     30414 TIP3     2702     TIP3     OH2      OT      -0.834000       15.9994           0
     30415 TIP3     2702     TIP3     H1       HT       0.417000       1.00800           0
     30416 TIP3     2702     TIP3     H2       HT       0.417000       1.00800           0
     30417 TIP3     2703     TIP3     OH2      OT      -0.834000       15.9994           0
     30418 TIP3     2703     TIP3     H1       HT       0.417000       1.00800           0
     30419 TIP3     2703     TIP3     H2       HT       0.417000       1.00800           0
     30420 TIP3     2704     TIP3     OH2      OT      -0.834000       15.9994           0
     30421 TIP3     2704     TIP3     H1       HT       0.417000       1.00800           0
     30422 TIP3     2704     TIP3     H2       HT       0.417000       1.00800           0
     30423 TIP3     2705     TIP3     OH2      OT      -0.834000       15.9994           0
     30424 TIP3     2705     TIP3     H1       HT       0.417000       1.00800           0
     30425 TIP3     2705     TIP3     H2       HT       0.417000       1.00800           0
     30426 TIP3     2706     TIP3     OH2      OT      -0.834000       15.9994           0
     30427 TIP3     2706     TIP3     H1       HT       0.417000       1.00800           0
     30428 TIP3     2706     TIP3     H2       HT       0.417000       1.00800           0
     30429 TIP3     2707     TIP3     OH2      OT      -0.834000       15.9994           0
     30430 TIP3     2707     TIP3     H1       HT       0.417000       1.00800           0
     30431 TIP3     2707     TIP3     H2       HT       0.417000       1.00800           0
     30432 TIP3     2708     TIP3     OH2      OT      -0.834000       15.9994           0
     30433 TIP3     2708     TIP3     H1       HT       0.417000       1.00800           0
     30434 TIP3     2708     TIP3     H2       HT       0.417000       1.00800           0
     30435 TIP3     2709     TIP3     OH2      OT      -0.834000       15.9994           0
     30436 TIP3     2709     TIP3     H1       HT       0.417000       1.00800           0
     30437 TIP3     2709     TIP3     H2       HT       0.417000       1.00800           0
     30438 TIP3     2710     TIP3     OH2      OT      -0.834000       15.9994           0
     30439 TIP3     2710     TIP3     H1       HT       0.417000       1.00800           0
     30440 TIP3     2710     TIP3     H2       HT       0.417000       1.00800           0
     30441 TIP3     2711     TIP3     OH2      OT      -0.834000       15.9994           0
     30442 TIP3     2711     TIP3     H1       HT       0.417000       1.00800           0
     30443 TIP3     2711     TIP3     H2       HT       0.417000       1.00800           0
     30444 TIP3     2712     TIP3     OH2      OT      -0.834000       15.9994           0
     30445 TIP3     2712     TIP3     H1       HT       0.417000       1.00800           0
     30446 TIP3     2712     TIP3     H2       HT       0.417000       1.00800           0
     30447 TIP3     2713     TIP3     OH2      OT      -0.834000       15.9994           0
     30448 TIP3     2713     TIP3     H1       HT       0.417000       1.00800           0
     30449 TIP3     2713     TIP3     H2       HT       0.417000       1.00800           0
     30450 TIP3     2714     TIP3     OH2      OT      -0.834000       15.9994           0
     30451 TIP3     2714     TIP3     H1       HT       0.417000       1.00800           0
     30452 TIP3     2714     TIP3     H2       HT       0.417000       1.00800           0
     30453 TIP3     2715     TIP3     OH2      OT      -0.834000       15.9994           0
     30454 TIP3     2715     TIP3     H1       HT       0.417000       1.00800           0
     30455 TIP3     2715     TIP3     H2       HT       0.417000       1.00800           0
     30456 TIP3     2716     TIP3     OH2      OT      -0.834000       15.9994           0
     30457 TIP3     2716     TIP3     H1       HT       0.417000       1.00800           0
     30458 TIP3     2716     TIP3     H2       HT       0.417000       1.00800           0
     30459 TIP3     2717     TIP3     OH2      OT      -0.834000       15.9994           0
     30460 TIP3     2717     TIP3     H1       HT       0.417000       1.00800           0
     30461 TIP3     2717     TIP3     H2       HT       0.417000       1.00800           0
     30462 TIP3     2718     TIP3     OH2      OT      -0.834000       15.9994           0
     30463 TIP3     2718     TIP3     H1       HT       0.417000       1.00800           0
     30464 TIP3     2718     TIP3     H2       HT       0.417000       1.00800           0
     30465 TIP3     2719     TIP3     OH2      OT      -0.834000       15.9994           0
     30466 TIP3     2719     TIP3     H1       HT       0.417000       1.00800           0
     30467 TIP3     2719     TIP3     H2       HT       0.417000       1.00800           0
     30468 TIP3     2720     TIP3     OH2      OT      -0.834000       15.9994           0
     30469 TIP3     2720     TIP3     H1       HT       0.417000       1.00800           0
     30470 TIP3     2720     TIP3     H2       HT       0.417000       1.00800           0
     30471 TIP3     2721     TIP3     OH2      OT      -0.834000       15.9994           0
     30472 TIP3     2721     TIP3     H1       HT       0.417000       1.00800           0
     30473 TIP3     2721     TIP3     H2       HT       0.417000       1.00800           0
     30474 TIP3     2722     TIP3     OH2      OT      -0.834000       15.9994           0
     30475 TIP3     2722     TIP3     H1       HT       0.417000       1.00800           0
     30476 TIP3     2722     TIP3     H2       HT       0.417000       1.00800           0
     30477 TIP3     2723     TIP3     OH2      OT      -0.834000       15.9994           0
     30478 TIP3     2723     TIP3     H1       HT       0.417000       1.00800           0
     30479 TIP3     2723     TIP3     H2       HT       0.417000       1.00800           0
     30480 TIP3     2724     TIP3     OH2      OT      -0.834000       15.9994           0
     30481 TIP3     2724     TIP3     H1       HT       0.417000       1.00800           0
     30482 TIP3     2724     TIP3     H2       HT       0.417000       1.00800           0
     30483 TIP3     2725     TIP3     OH2      OT      -0.834000       15.9994           0
     30484 TIP3     2725     TIP3     H1       HT       0.417000       1.00800           0
     30485 TIP3     2725     TIP3     H2       HT       0.417000       1.00800           0
     30486 TIP3     2726     TIP3     OH2      OT      -0.834000       15.9994           0
     30487 TIP3     2726     TIP3     H1       HT       0.417000       1.00800           0
     30488 TIP3     2726     TIP3     H2       HT       0.417000       1.00800           0
     30489 TIP3     2727     TIP3     OH2      OT      -0.834000       15.9994           0
     30490 TIP3     2727     TIP3     H1       HT       0.417000       1.00800           0
     30491 TIP3     2727     TIP3     H2       HT       0.417000       1.00800           0
     30492 TIP3     2728     TIP3     OH2      OT      -0.834000       15.9994           0
     30493 TIP3     2728     TIP3     H1       HT       0.417000       1.00800           0
     30494 TIP3     2728     TIP3     H2       HT       0.417000       1.00800           0
     30495 TIP3     2729     TIP3     OH2      OT      -0.834000       15.9994           0
     30496 TIP3     2729     TIP3     H1       HT       0.417000       1.00800           0
     30497 TIP3     2729     TIP3     H2       HT       0.417000       1.00800           0
     30498 TIP3     2730     TIP3     OH2      OT      -0.834000       15.9994           0
     30499 TIP3     2730     TIP3     H1       HT       0.417000       1.00800           0
     30500 TIP3     2730     TIP3     H2       HT       0.417000       1.00800           0
     30501 TIP3     2731     TIP3     OH2      OT      -0.834000       15.9994           0
     30502 TIP3     2731     TIP3     H1       HT       0.417000       1.00800           0
     30503 TIP3     2731     TIP3     H2       HT       0.417000       1.00800           0
     30504 TIP3     2732     TIP3     OH2      OT      -0.834000       15.9994           0
     30505 TIP3     2732     TIP3     H1       HT       0.417000       1.00800           0
     30506 TIP3     2732     TIP3     H2       HT       0.417000       1.00800           0
     30507 TIP3     2733     TIP3     OH2      OT      -0.834000       15.9994           0
     30508 TIP3     2733     TIP3     H1       HT       0.417000       1.00800           0
     30509 TIP3     2733     TIP3     H2       HT       0.417000       1.00800           0
     30510 TIP3     2734     TIP3     OH2      OT      -0.834000       15.9994           0
     30511 TIP3     2734     TIP3     H1       HT       0.417000       1.00800           0
     30512 TIP3     2734     TIP3     H2       HT       0.417000       1.00800           0
     30513 TIP3     2735     TIP3     OH2      OT      -0.834000       15.9994           0
     30514 TIP3     2735     TIP3     H1       HT       0.417000       1.00800           0
     30515 TIP3     2735     TIP3     H2       HT       0.417000       1.00800           0
     30516 TIP3     2736     TIP3     OH2      OT      -0.834000       15.9994           0
     30517 TIP3     2736     TIP3     H1       HT       0.417000       1.00800           0
     30518 TIP3     2736     TIP3     H2       HT       0.417000       1.00800           0
     30519 TIP3     2737     TIP3     OH2      OT      -0.834000       15.9994           0
     30520 TIP3     2737     TIP3     H1       HT       0.417000       1.00800           0
     30521 TIP3     2737     TIP3     H2       HT       0.417000       1.00800           0
     30522 TIP3     2738     TIP3     OH2      OT      -0.834000       15.9994           0
     30523 TIP3     2738     TIP3     H1       HT       0.417000       1.00800           0
     30524 TIP3     2738     TIP3     H2       HT       0.417000       1.00800           0
     30525 TIP3     2739     TIP3     OH2      OT      -0.834000       15.9994           0
     30526 TIP3     2739     TIP3     H1       HT       0.417000       1.00800           0
     30527 TIP3     2739     TIP3     H2       HT       0.417000       1.00800           0
     30528 TIP3     2740     TIP3     OH2      OT      -0.834000       15.9994           0
     30529 TIP3     2740     TIP3     H1       HT       0.417000       1.00800           0
     30530 TIP3     2740     TIP3     H2       HT       0.417000       1.00800           0
     30531 TIP3     2741     TIP3     OH2      OT      -0.834000       15.9994           0
     30532 TIP3     2741     TIP3     H1       HT       0.417000       1.00800           0
     30533 TIP3     2741     TIP3     H2       HT       0.417000       1.00800           0
     30534 TIP3     2742     TIP3     OH2      OT      -0.834000       15.9994           0
     30535 TIP3     2742     TIP3     H1       HT       0.417000       1.00800           0
     30536 TIP3     2742     TIP3     H2       HT       0.417000       1.00800           0
     30537 TIP3     2743     TIP3     OH2      OT      -0.834000       15.9994           0
     30538 TIP3     2743     TIP3     H1       HT       0.417000       1.00800           0
     30539 TIP3     2743     TIP3     H2       HT       0.417000       1.00800           0
     30540 TIP3     2744     TIP3     OH2      OT      -0.834000       15.9994           0
     30541 TIP3     2744     TIP3     H1       HT       0.417000       1.00800           0
     30542 TIP3     2744     TIP3     H2       HT       0.417000       1.00800           0
     30543 TIP3     2745     TIP3     OH2      OT      -0.834000       15.9994           0
     30544 TIP3     2745     TIP3     H1       HT       0.417000       1.00800           0
     30545 TIP3     2745     TIP3     H2       HT       0.417000       1.00800           0
     30546 TIP3     2746     TIP3     OH2      OT      -0.834000       15.9994           0
     30547 TIP3     2746     TIP3     H1       HT       0.417000       1.00800           0
     30548 TIP3     2746     TIP3     H2       HT       0.417000       1.00800           0
     30549 TIP3     2747     TIP3     OH2      OT      -0.834000       15.9994           0
     30550 TIP3     2747     TIP3     H1       HT       0.417000       1.00800           0
     30551 TIP3     2747     TIP3     H2       HT       0.417000       1.00800           0
     30552 TIP3     2748     TIP3     OH2      OT      -0.834000       15.9994           0
     30553 TIP3     2748     TIP3     H1       HT       0.417000       1.00800           0
     30554 TIP3     2748     TIP3     H2       HT       0.417000       1.00800           0
     30555 TIP3     2749     TIP3     OH2      OT      -0.834000       15.9994           0
     30556 TIP3     2749     TIP3     H1       HT       0.417000       1.00800           0
     30557 TIP3     2749     TIP3     H2       HT       0.417000       1.00800           0
     30558 TIP3     2750     TIP3     OH2      OT      -0.834000       15.9994           0
     30559 TIP3     2750     TIP3     H1       HT       0.417000       1.00800           0
     30560 TIP3     2750     TIP3     H2       HT       0.417000       1.00800           0
     30561 TIP3     2751     TIP3     OH2      OT      -0.834000       15.9994           0
     30562 TIP3     2751     TIP3     H1       HT       0.417000       1.00800           0
     30563 TIP3     2751     TIP3     H2       HT       0.417000       1.00800           0
     30564 TIP3     2752     TIP3     OH2      OT      -0.834000       15.9994           0
     30565 TIP3     2752     TIP3     H1       HT       0.417000       1.00800           0
     30566 TIP3     2752     TIP3     H2       HT       0.417000       1.00800           0
     30567 TIP3     2753     TIP3     OH2      OT      -0.834000       15.9994           0
     30568 TIP3     2753     TIP3     H1       HT       0.417000       1.00800           0
     30569 TIP3     2753     TIP3     H2       HT       0.417000       1.00800           0
     30570 TIP3     2754     TIP3     OH2      OT      -0.834000       15.9994           0
     30571 TIP3     2754     TIP3     H1       HT       0.417000       1.00800           0
     30572 TIP3     2754     TIP3     H2       HT       0.417000       1.00800           0
     30573 TIP3     2755     TIP3     OH2      OT      -0.834000       15.9994           0
     30574 TIP3     2755     TIP3     H1       HT       0.417000       1.00800           0
     30575 TIP3     2755     TIP3     H2       HT       0.417000       1.00800           0
     30576 TIP3     2756     TIP3     OH2      OT      -0.834000       15.9994           0
     30577 TIP3     2756     TIP3     H1       HT       0.417000       1.00800           0
     30578 TIP3     2756     TIP3     H2       HT       0.417000       1.00800           0
     30579 TIP3     2757     TIP3     OH2      OT      -0.834000       15.9994           0
     30580 TIP3     2757     TIP3     H1       HT       0.417000       1.00800           0
     30581 TIP3     2757     TIP3     H2       HT       0.417000       1.00800           0
     30582 TIP3     2758     TIP3     OH2      OT      -0.834000       15.9994           0
     30583 TIP3     2758     TIP3     H1       HT       0.417000       1.00800           0
     30584 TIP3     2758     TIP3     H2       HT       0.417000       1.00800           0
     30585 TIP3     2759     TIP3     OH2      OT      -0.834000       15.9994           0
     30586 TIP3     2759     TIP3     H1       HT       0.417000       1.00800           0
     30587 TIP3     2759     TIP3     H2       HT       0.417000       1.00800           0
     30588 TIP3     2760     TIP3     OH2      OT      -0.834000       15.9994           0
     30589 TIP3     2760     TIP3     H1       HT       0.417000       1.00800           0
     30590 TIP3     2760     TIP3     H2       HT       0.417000       1.00800           0
     30591 TIP3     2761     TIP3     OH2      OT      -0.834000       15.9994           0
     30592 TIP3     2761     TIP3     H1       HT       0.417000       1.00800           0
     30593 TIP3     2761     TIP3     H2       HT       0.417000       1.00800           0
     30594 TIP3     2762     TIP3     OH2      OT      -0.834000       15.9994           0
     30595 TIP3     2762     TIP3     H1       HT       0.417000       1.00800           0
     30596 TIP3     2762     TIP3     H2       HT       0.417000       1.00800           0
     30597 TIP3     2763     TIP3     OH2      OT      -0.834000       15.9994           0
     30598 TIP3     2763     TIP3     H1       HT       0.417000       1.00800           0
     30599 TIP3     2763     TIP3     H2       HT       0.417000       1.00800           0
     30600 TIP3     2764     TIP3     OH2      OT      -0.834000       15.9994           0
     30601 TIP3     2764     TIP3     H1       HT       0.417000       1.00800           0
     30602 TIP3     2764     TIP3     H2       HT       0.417000       1.00800           0
     30603 TIP3     2765     TIP3     OH2      OT      -0.834000       15.9994           0
     30604 TIP3     2765     TIP3     H1       HT       0.417000       1.00800           0
     30605 TIP3     2765     TIP3     H2       HT       0.417000       1.00800           0
     30606 TIP3     2766     TIP3     OH2      OT      -0.834000       15.9994           0
     30607 TIP3     2766     TIP3     H1       HT       0.417000       1.00800           0
     30608 TIP3     2766     TIP3     H2       HT       0.417000       1.00800           0
     30609 TIP3     2767     TIP3     OH2      OT      -0.834000       15.9994           0
     30610 TIP3     2767     TIP3     H1       HT       0.417000       1.00800           0
     30611 TIP3     2767     TIP3     H2       HT       0.417000       1.00800           0
     30612 TIP3     2768     TIP3     OH2      OT      -0.834000       15.9994           0
     30613 TIP3     2768     TIP3     H1       HT       0.417000       1.00800           0
     30614 TIP3     2768     TIP3     H2       HT       0.417000       1.00800           0
     30615 TIP3     2769     TIP3     OH2      OT      -0.834000       15.9994           0
     30616 TIP3     2769     TIP3     H1       HT       0.417000       1.00800           0
     30617 TIP3     2769     TIP3     H2       HT       0.417000       1.00800           0
     30618 TIP3     2770     TIP3     OH2      OT      -0.834000       15.9994           0
     30619 TIP3     2770     TIP3     H1       HT       0.417000       1.00800           0
     30620 TIP3     2770     TIP3     H2       HT       0.417000       1.00800           0
     30621 TIP3     2771     TIP3     OH2      OT      -0.834000       15.9994           0
     30622 TIP3     2771     TIP3     H1       HT       0.417000       1.00800           0
     30623 TIP3     2771     TIP3     H2       HT       0.417000       1.00800           0
     30624 TIP3     2772     TIP3     OH2      OT      -0.834000       15.9994           0
     30625 TIP3     2772     TIP3     H1       HT       0.417000       1.00800           0
     30626 TIP3     2772     TIP3     H2       HT       0.417000       1.00800           0
     30627 TIP3     2773     TIP3     OH2      OT      -0.834000       15.9994           0
     30628 TIP3     2773     TIP3     H1       HT       0.417000       1.00800           0
     30629 TIP3     2773     TIP3     H2       HT       0.417000       1.00800           0
     30630 TIP3     2774     TIP3     OH2      OT      -0.834000       15.9994           0
     30631 TIP3     2774     TIP3     H1       HT       0.417000       1.00800           0
     30632 TIP3     2774     TIP3     H2       HT       0.417000       1.00800           0
     30633 TIP3     2775     TIP3     OH2      OT      -0.834000       15.9994           0
     30634 TIP3     2775     TIP3     H1       HT       0.417000       1.00800           0
     30635 TIP3     2775     TIP3     H2       HT       0.417000       1.00800           0
     30636 TIP3     2776     TIP3     OH2      OT      -0.834000       15.9994           0
     30637 TIP3     2776     TIP3     H1       HT       0.417000       1.00800           0
     30638 TIP3     2776     TIP3     H2       HT       0.417000       1.00800           0
     30639 TIP3     2777     TIP3     OH2      OT      -0.834000       15.9994           0
     30640 TIP3     2777     TIP3     H1       HT       0.417000       1.00800           0
     30641 TIP3     2777     TIP3     H2       HT       0.417000       1.00800           0
     30642 TIP3     2778     TIP3     OH2      OT      -0.834000       15.9994           0
     30643 TIP3     2778     TIP3     H1       HT       0.417000       1.00800           0
     30644 TIP3     2778     TIP3     H2       HT       0.417000       1.00800           0
     30645 TIP3     2779     TIP3     OH2      OT      -0.834000       15.9994           0
     30646 TIP3     2779     TIP3     H1       HT       0.417000       1.00800           0
     30647 TIP3     2779     TIP3     H2       HT       0.417000       1.00800           0
     30648 TIP3     2780     TIP3     OH2      OT      -0.834000       15.9994           0
     30649 TIP3     2780     TIP3     H1       HT       0.417000       1.00800           0
     30650 TIP3     2780     TIP3     H2       HT       0.417000       1.00800           0
     30651 TIP3     2781     TIP3     OH2      OT      -0.834000       15.9994           0
     30652 TIP3     2781     TIP3     H1       HT       0.417000       1.00800           0
     30653 TIP3     2781     TIP3     H2       HT       0.417000       1.00800           0
     30654 TIP3     2782     TIP3     OH2      OT      -0.834000       15.9994           0
     30655 TIP3     2782     TIP3     H1       HT       0.417000       1.00800           0
     30656 TIP3     2782     TIP3     H2       HT       0.417000       1.00800           0
     30657 TIP3     2783     TIP3     OH2      OT      -0.834000       15.9994           0
     30658 TIP3     2783     TIP3     H1       HT       0.417000       1.00800           0
     30659 TIP3     2783     TIP3     H2       HT       0.417000       1.00800           0
     30660 TIP3     2784     TIP3     OH2      OT      -0.834000       15.9994           0
     30661 TIP3     2784     TIP3     H1       HT       0.417000       1.00800           0
     30662 TIP3     2784     TIP3     H2       HT       0.417000       1.00800           0
     30663 TIP3     2785     TIP3     OH2      OT      -0.834000       15.9994           0
     30664 TIP3     2785     TIP3     H1       HT       0.417000       1.00800           0
     30665 TIP3     2785     TIP3     H2       HT       0.417000       1.00800           0
     30666 TIP3     2786     TIP3     OH2      OT      -0.834000       15.9994           0
     30667 TIP3     2786     TIP3     H1       HT       0.417000       1.00800           0
     30668 TIP3     2786     TIP3     H2       HT       0.417000       1.00800           0
     30669 TIP3     2787     TIP3     OH2      OT      -0.834000       15.9994           0
     30670 TIP3     2787     TIP3     H1       HT       0.417000       1.00800           0
     30671 TIP3     2787     TIP3     H2       HT       0.417000       1.00800           0
     30672 TIP3     2788     TIP3     OH2      OT      -0.834000       15.9994           0
     30673 TIP3     2788     TIP3     H1       HT       0.417000       1.00800           0
     30674 TIP3     2788     TIP3     H2       HT       0.417000       1.00800           0
     30675 TIP3     2789     TIP3     OH2      OT      -0.834000       15.9994           0
     30676 TIP3     2789     TIP3     H1       HT       0.417000       1.00800           0
     30677 TIP3     2789     TIP3     H2       HT       0.417000       1.00800           0
     30678 TIP3     2790     TIP3     OH2      OT      -0.834000       15.9994           0
     30679 TIP3     2790     TIP3     H1       HT       0.417000       1.00800           0
     30680 TIP3     2790     TIP3     H2       HT       0.417000       1.00800           0
     30681 TIP3     2791     TIP3     OH2      OT      -0.834000       15.9994           0
     30682 TIP3     2791     TIP3     H1       HT       0.417000       1.00800           0
     30683 TIP3     2791     TIP3     H2       HT       0.417000       1.00800           0
     30684 TIP3     2792     TIP3     OH2      OT      -0.834000       15.9994           0
     30685 TIP3     2792     TIP3     H1       HT       0.417000       1.00800           0
     30686 TIP3     2792     TIP3     H2       HT       0.417000       1.00800           0
     30687 TIP3     2793     TIP3     OH2      OT      -0.834000       15.9994           0
     30688 TIP3     2793     TIP3     H1       HT       0.417000       1.00800           0
     30689 TIP3     2793     TIP3     H2       HT       0.417000       1.00800           0
     30690 TIP3     2794     TIP3     OH2      OT      -0.834000       15.9994           0
     30691 TIP3     2794     TIP3     H1       HT       0.417000       1.00800           0
     30692 TIP3     2794     TIP3     H2       HT       0.417000       1.00800           0
     30693 TIP3     2795     TIP3     OH2      OT      -0.834000       15.9994           0
     30694 TIP3     2795     TIP3     H1       HT       0.417000       1.00800           0
     30695 TIP3     2795     TIP3     H2       HT       0.417000       1.00800           0
     30696 TIP3     2796     TIP3     OH2      OT      -0.834000       15.9994           0
     30697 TIP3     2796     TIP3     H1       HT       0.417000       1.00800           0
     30698 TIP3     2796     TIP3     H2       HT       0.417000       1.00800           0
     30699 TIP3     2797     TIP3     OH2      OT      -0.834000       15.9994           0
     30700 TIP3     2797     TIP3     H1       HT       0.417000       1.00800           0
     30701 TIP3     2797     TIP3     H2       HT       0.417000       1.00800           0
     30702 TIP3     2798     TIP3     OH2      OT      -0.834000       15.9994           0
     30703 TIP3     2798     TIP3     H1       HT       0.417000       1.00800           0
     30704 TIP3     2798     TIP3     H2       HT       0.417000       1.00800           0
     30705 TIP3     2799     TIP3     OH2      OT      -0.834000       15.9994           0
     30706 TIP3     2799     TIP3     H1       HT       0.417000       1.00800           0
     30707 TIP3     2799     TIP3     H2       HT       0.417000       1.00800           0
     30708 TIP3     2800     TIP3     OH2      OT      -0.834000       15.9994           0
     30709 TIP3     2800     TIP3     H1       HT       0.417000       1.00800           0
     30710 TIP3     2800     TIP3     H2       HT       0.417000       1.00800           0
     30711 TIP3     2801     TIP3     OH2      OT      -0.834000       15.9994           0
     30712 TIP3     2801     TIP3     H1       HT       0.417000       1.00800           0
     30713 TIP3     2801     TIP3     H2       HT       0.417000       1.00800           0
     30714 TIP3     2802     TIP3     OH2      OT      -0.834000       15.9994           0
     30715 TIP3     2802     TIP3     H1       HT       0.417000       1.00800           0
     30716 TIP3     2802     TIP3     H2       HT       0.417000       1.00800           0
     30717 TIP3     2803     TIP3     OH2      OT      -0.834000       15.9994           0
     30718 TIP3     2803     TIP3     H1       HT       0.417000       1.00800           0
     30719 TIP3     2803     TIP3     H2       HT       0.417000       1.00800           0
     30720 TIP3     2804     TIP3     OH2      OT      -0.834000       15.9994           0
     30721 TIP3     2804     TIP3     H1       HT       0.417000       1.00800           0
     30722 TIP3     2804     TIP3     H2       HT       0.417000       1.00800           0
     30723 TIP3     2805     TIP3     OH2      OT      -0.834000       15.9994           0
     30724 TIP3     2805     TIP3     H1       HT       0.417000       1.00800           0
     30725 TIP3     2805     TIP3     H2       HT       0.417000       1.00800           0
     30726 TIP3     2806     TIP3     OH2      OT      -0.834000       15.9994           0
     30727 TIP3     2806     TIP3     H1       HT       0.417000       1.00800           0
     30728 TIP3     2806     TIP3     H2       HT       0.417000       1.00800           0
     30729 TIP3     2807     TIP3     OH2      OT      -0.834000       15.9994           0
     30730 TIP3     2807     TIP3     H1       HT       0.417000       1.00800           0
     30731 TIP3     2807     TIP3     H2       HT       0.417000       1.00800           0
     30732 TIP3     2808     TIP3     OH2      OT      -0.834000       15.9994           0
     30733 TIP3     2808     TIP3     H1       HT       0.417000       1.00800           0
     30734 TIP3     2808     TIP3     H2       HT       0.417000       1.00800           0
     30735 TIP3     2809     TIP3     OH2      OT      -0.834000       15.9994           0
     30736 TIP3     2809     TIP3     H1       HT       0.417000       1.00800           0
     30737 TIP3     2809     TIP3     H2       HT       0.417000       1.00800           0
     30738 TIP3     2810     TIP3     OH2      OT      -0.834000       15.9994           0
     30739 TIP3     2810     TIP3     H1       HT       0.417000       1.00800           0
     30740 TIP3     2810     TIP3     H2       HT       0.417000       1.00800           0
     30741 TIP3     2811     TIP3     OH2      OT      -0.834000       15.9994           0
     30742 TIP3     2811     TIP3     H1       HT       0.417000       1.00800           0
     30743 TIP3     2811     TIP3     H2       HT       0.417000       1.00800           0
     30744 TIP3     2812     TIP3     OH2      OT      -0.834000       15.9994           0
     30745 TIP3     2812     TIP3     H1       HT       0.417000       1.00800           0
     30746 TIP3     2812     TIP3     H2       HT       0.417000       1.00800           0
     30747 TIP3     2813     TIP3     OH2      OT      -0.834000       15.9994           0
     30748 TIP3     2813     TIP3     H1       HT       0.417000       1.00800           0
     30749 TIP3     2813     TIP3     H2       HT       0.417000       1.00800           0
     30750 TIP3     2814     TIP3     OH2      OT      -0.834000       15.9994           0
     30751 TIP3     2814     TIP3     H1       HT       0.417000       1.00800           0
     30752 TIP3     2814     TIP3     H2       HT       0.417000       1.00800           0
     30753 TIP3     2815     TIP3     OH2      OT      -0.834000       15.9994           0
     30754 TIP3     2815     TIP3     H1       HT       0.417000       1.00800           0
     30755 TIP3     2815     TIP3     H2       HT       0.417000       1.00800           0
     30756 TIP3     2816     TIP3     OH2      OT      -0.834000       15.9994           0
     30757 TIP3     2816     TIP3     H1       HT       0.417000       1.00800           0
     30758 TIP3     2816     TIP3     H2       HT       0.417000       1.00800           0
     30759 TIP3     2817     TIP3     OH2      OT      -0.834000       15.9994           0
     30760 TIP3     2817     TIP3     H1       HT       0.417000       1.00800           0
     30761 TIP3     2817     TIP3     H2       HT       0.417000       1.00800           0
     30762 TIP3     2818     TIP3     OH2      OT      -0.834000       15.9994           0
     30763 TIP3     2818     TIP3     H1       HT       0.417000       1.00800           0
     30764 TIP3     2818     TIP3     H2       HT       0.417000       1.00800           0
     30765 TIP3     2819     TIP3     OH2      OT      -0.834000       15.9994           0
     30766 TIP3     2819     TIP3     H1       HT       0.417000       1.00800           0
     30767 TIP3     2819     TIP3     H2       HT       0.417000       1.00800           0
     30768 TIP3     2820     TIP3     OH2      OT      -0.834000       15.9994           0
     30769 TIP3     2820     TIP3     H1       HT       0.417000       1.00800           0
     30770 TIP3     2820     TIP3     H2       HT       0.417000       1.00800           0
     30771 TIP3     2821     TIP3     OH2      OT      -0.834000       15.9994           0
     30772 TIP3     2821     TIP3     H1       HT       0.417000       1.00800           0
     30773 TIP3     2821     TIP3     H2       HT       0.417000       1.00800           0
     30774 TIP3     2822     TIP3     OH2      OT      -0.834000       15.9994           0
     30775 TIP3     2822     TIP3     H1       HT       0.417000       1.00800           0
     30776 TIP3     2822     TIP3     H2       HT       0.417000       1.00800           0
     30777 TIP3     2823     TIP3     OH2      OT      -0.834000       15.9994           0
     30778 TIP3     2823     TIP3     H1       HT       0.417000       1.00800           0
     30779 TIP3     2823     TIP3     H2       HT       0.417000       1.00800           0
     30780 TIP3     2824     TIP3     OH2      OT      -0.834000       15.9994           0
     30781 TIP3     2824     TIP3     H1       HT       0.417000       1.00800           0
     30782 TIP3     2824     TIP3     H2       HT       0.417000       1.00800           0
     30783 TIP3     2825     TIP3     OH2      OT      -0.834000       15.9994           0
     30784 TIP3     2825     TIP3     H1       HT       0.417000       1.00800           0
     30785 TIP3     2825     TIP3     H2       HT       0.417000       1.00800           0
     30786 TIP3     2826     TIP3     OH2      OT      -0.834000       15.9994           0
     30787 TIP3     2826     TIP3     H1       HT       0.417000       1.00800           0
     30788 TIP3     2826     TIP3     H2       HT       0.417000       1.00800           0
     30789 TIP3     2827     TIP3     OH2      OT      -0.834000       15.9994           0
     30790 TIP3     2827     TIP3     H1       HT       0.417000       1.00800           0
     30791 TIP3     2827     TIP3     H2       HT       0.417000       1.00800           0
     30792 TIP3     2828     TIP3     OH2      OT      -0.834000       15.9994           0
     30793 TIP3     2828     TIP3     H1       HT       0.417000       1.00800           0
     30794 TIP3     2828     TIP3     H2       HT       0.417000       1.00800           0
     30795 TIP3     2829     TIP3     OH2      OT      -0.834000       15.9994           0
     30796 TIP3     2829     TIP3     H1       HT       0.417000       1.00800           0
     30797 TIP3     2829     TIP3     H2       HT       0.417000       1.00800           0
     30798 TIP3     2830     TIP3     OH2      OT      -0.834000       15.9994           0
     30799 TIP3     2830     TIP3     H1       HT       0.417000       1.00800           0
     30800 TIP3     2830     TIP3     H2       HT       0.417000       1.00800           0
     30801 TIP3     2831     TIP3     OH2      OT      -0.834000       15.9994           0
     30802 TIP3     2831     TIP3     H1       HT       0.417000       1.00800           0
     30803 TIP3     2831     TIP3     H2       HT       0.417000       1.00800           0
     30804 TIP3     2832     TIP3     OH2      OT      -0.834000       15.9994           0
     30805 TIP3     2832     TIP3     H1       HT       0.417000       1.00800           0
     30806 TIP3     2832     TIP3     H2       HT       0.417000       1.00800           0
     30807 TIP3     2833     TIP3     OH2      OT      -0.834000       15.9994           0
     30808 TIP3     2833     TIP3     H1       HT       0.417000       1.00800           0
     30809 TIP3     2833     TIP3     H2       HT       0.417000       1.00800           0
     30810 TIP3     2834     TIP3     OH2      OT      -0.834000       15.9994           0
     30811 TIP3     2834     TIP3     H1       HT       0.417000       1.00800           0
     30812 TIP3     2834     TIP3     H2       HT       0.417000       1.00800           0
     30813 TIP3     2835     TIP3     OH2      OT      -0.834000       15.9994           0
     30814 TIP3     2835     TIP3     H1       HT       0.417000       1.00800           0
     30815 TIP3     2835     TIP3     H2       HT       0.417000       1.00800           0
     30816 TIP3     2836     TIP3     OH2      OT      -0.834000       15.9994           0
     30817 TIP3     2836     TIP3     H1       HT       0.417000       1.00800           0
     30818 TIP3     2836     TIP3     H2       HT       0.417000       1.00800           0
     30819 TIP3     2837     TIP3     OH2      OT      -0.834000       15.9994           0
     30820 TIP3     2837     TIP3     H1       HT       0.417000       1.00800           0
     30821 TIP3     2837     TIP3     H2       HT       0.417000       1.00800           0
     30822 TIP3     2838     TIP3     OH2      OT      -0.834000       15.9994           0
     30823 TIP3     2838     TIP3     H1       HT       0.417000       1.00800           0
     30824 TIP3     2838     TIP3     H2       HT       0.417000       1.00800           0
     30825 TIP3     2839     TIP3     OH2      OT      -0.834000       15.9994           0
     30826 TIP3     2839     TIP3     H1       HT       0.417000       1.00800           0
     30827 TIP3     2839     TIP3     H2       HT       0.417000       1.00800           0
     30828 TIP3     2840     TIP3     OH2      OT      -0.834000       15.9994           0
     30829 TIP3     2840     TIP3     H1       HT       0.417000       1.00800           0
     30830 TIP3     2840     TIP3     H2       HT       0.417000       1.00800           0
     30831 TIP3     2841     TIP3     OH2      OT      -0.834000       15.9994           0
     30832 TIP3     2841     TIP3     H1       HT       0.417000       1.00800           0
     30833 TIP3     2841     TIP3     H2       HT       0.417000       1.00800           0
     30834 TIP3     2842     TIP3     OH2      OT      -0.834000       15.9994           0
     30835 TIP3     2842     TIP3     H1       HT       0.417000       1.00800           0
     30836 TIP3     2842     TIP3     H2       HT       0.417000       1.00800           0
     30837 TIP3     2843     TIP3     OH2      OT      -0.834000       15.9994           0
     30838 TIP3     2843     TIP3     H1       HT       0.417000       1.00800           0
     30839 TIP3     2843     TIP3     H2       HT       0.417000       1.00800           0
     30840 TIP3     2844     TIP3     OH2      OT      -0.834000       15.9994           0
     30841 TIP3     2844     TIP3     H1       HT       0.417000       1.00800           0
     30842 TIP3     2844     TIP3     H2       HT       0.417000       1.00800           0
     30843 TIP3     2845     TIP3     OH2      OT      -0.834000       15.9994           0
     30844 TIP3     2845     TIP3     H1       HT       0.417000       1.00800           0
     30845 TIP3     2845     TIP3     H2       HT       0.417000       1.00800           0
     30846 TIP3     2846     TIP3     OH2      OT      -0.834000       15.9994           0
     30847 TIP3     2846     TIP3     H1       HT       0.417000       1.00800           0
     30848 TIP3     2846     TIP3     H2       HT       0.417000       1.00800           0
     30849 TIP3     2847     TIP3     OH2      OT      -0.834000       15.9994           0
     30850 TIP3     2847     TIP3     H1       HT       0.417000       1.00800           0
     30851 TIP3     2847     TIP3     H2       HT       0.417000       1.00800           0
     30852 TIP3     2848     TIP3     OH2      OT      -0.834000       15.9994           0
     30853 TIP3     2848     TIP3     H1       HT       0.417000       1.00800           0
     30854 TIP3     2848     TIP3     H2       HT       0.417000       1.00800           0
     30855 TIP3     2849     TIP3     OH2      OT      -0.834000       15.9994           0
     30856 TIP3     2849     TIP3     H1       HT       0.417000       1.00800           0
     30857 TIP3     2849     TIP3     H2       HT       0.417000       1.00800           0
     30858 TIP3     2850     TIP3     OH2      OT      -0.834000       15.9994           0
     30859 TIP3     2850     TIP3     H1       HT       0.417000       1.00800           0
     30860 TIP3     2850     TIP3     H2       HT       0.417000       1.00800           0
     30861 TIP3     2851     TIP3     OH2      OT      -0.834000       15.9994           0
     30862 TIP3     2851     TIP3     H1       HT       0.417000       1.00800           0
     30863 TIP3     2851     TIP3     H2       HT       0.417000       1.00800           0
     30864 TIP3     2852     TIP3     OH2      OT      -0.834000       15.9994           0
     30865 TIP3     2852     TIP3     H1       HT       0.417000       1.00800           0
     30866 TIP3     2852     TIP3     H2       HT       0.417000       1.00800           0
     30867 TIP3     2853     TIP3     OH2      OT      -0.834000       15.9994           0
     30868 TIP3     2853     TIP3     H1       HT       0.417000       1.00800           0
     30869 TIP3     2853     TIP3     H2       HT       0.417000       1.00800           0
     30870 TIP3     2854     TIP3     OH2      OT      -0.834000       15.9994           0
     30871 TIP3     2854     TIP3     H1       HT       0.417000       1.00800           0
     30872 TIP3     2854     TIP3     H2       HT       0.417000       1.00800           0
     30873 TIP3     2855     TIP3     OH2      OT      -0.834000       15.9994           0
     30874 TIP3     2855     TIP3     H1       HT       0.417000       1.00800           0
     30875 TIP3     2855     TIP3     H2       HT       0.417000       1.00800           0
     30876 TIP3     2856     TIP3     OH2      OT      -0.834000       15.9994           0
     30877 TIP3     2856     TIP3     H1       HT       0.417000       1.00800           0
     30878 TIP3     2856     TIP3     H2       HT       0.417000       1.00800           0
     30879 TIP3     2857     TIP3     OH2      OT      -0.834000       15.9994           0
     30880 TIP3     2857     TIP3     H1       HT       0.417000       1.00800           0
     30881 TIP3     2857     TIP3     H2       HT       0.417000       1.00800           0
     30882 TIP3     2858     TIP3     OH2      OT      -0.834000       15.9994           0
     30883 TIP3     2858     TIP3     H1       HT       0.417000       1.00800           0
     30884 TIP3     2858     TIP3     H2       HT       0.417000       1.00800           0
     30885 TIP3     2859     TIP3     OH2      OT      -0.834000       15.9994           0
     30886 TIP3     2859     TIP3     H1       HT       0.417000       1.00800           0
     30887 TIP3     2859     TIP3     H2       HT       0.417000       1.00800           0
     30888 TIP3     2860     TIP3     OH2      OT      -0.834000       15.9994           0
     30889 TIP3     2860     TIP3     H1       HT       0.417000       1.00800           0
     30890 TIP3     2860     TIP3     H2       HT       0.417000       1.00800           0
     30891 TIP3     2861     TIP3     OH2      OT      -0.834000       15.9994           0
     30892 TIP3     2861     TIP3     H1       HT       0.417000       1.00800           0
     30893 TIP3     2861     TIP3     H2       HT       0.417000       1.00800           0
     30894 TIP3     2862     TIP3     OH2      OT      -0.834000       15.9994           0
     30895 TIP3     2862     TIP3     H1       HT       0.417000       1.00800           0
     30896 TIP3     2862     TIP3     H2       HT       0.417000       1.00800           0
     30897 TIP3     2863     TIP3     OH2      OT      -0.834000       15.9994           0
     30898 TIP3     2863     TIP3     H1       HT       0.417000       1.00800           0
     30899 TIP3     2863     TIP3     H2       HT       0.417000       1.00800           0
     30900 TIP3     2864     TIP3     OH2      OT      -0.834000       15.9994           0
     30901 TIP3     2864     TIP3     H1       HT       0.417000       1.00800           0
     30902 TIP3     2864     TIP3     H2       HT       0.417000       1.00800           0
     30903 TIP3     2865     TIP3     OH2      OT      -0.834000       15.9994           0
     30904 TIP3     2865     TIP3     H1       HT       0.417000       1.00800           0
     30905 TIP3     2865     TIP3     H2       HT       0.417000       1.00800           0
     30906 TIP3     2866     TIP3     OH2      OT      -0.834000       15.9994           0
     30907 TIP3     2866     TIP3     H1       HT       0.417000       1.00800           0
     30908 TIP3     2866     TIP3     H2       HT       0.417000       1.00800           0
     30909 TIP3     2867     TIP3     OH2      OT      -0.834000       15.9994           0
     30910 TIP3     2867     TIP3     H1       HT       0.417000       1.00800           0
     30911 TIP3     2867     TIP3     H2       HT       0.417000       1.00800           0
     30912 TIP3     2868     TIP3     OH2      OT      -0.834000       15.9994           0
     30913 TIP3     2868     TIP3     H1       HT       0.417000       1.00800           0
     30914 TIP3     2868     TIP3     H2       HT       0.417000       1.00800           0
     30915 TIP3     2869     TIP3     OH2      OT      -0.834000       15.9994           0
     30916 TIP3     2869     TIP3     H1       HT       0.417000       1.00800           0
     30917 TIP3     2869     TIP3     H2       HT       0.417000       1.00800           0
     30918 TIP3     2870     TIP3     OH2      OT      -0.834000       15.9994           0
     30919 TIP3     2870     TIP3     H1       HT       0.417000       1.00800           0
     30920 TIP3     2870     TIP3     H2       HT       0.417000       1.00800           0
     30921 TIP3     2871     TIP3     OH2      OT      -0.834000       15.9994           0
     30922 TIP3     2871     TIP3     H1       HT       0.417000       1.00800           0
     30923 TIP3     2871     TIP3     H2       HT       0.417000       1.00800           0
     30924 TIP3     2872     TIP3     OH2      OT      -0.834000       15.9994           0
     30925 TIP3     2872     TIP3     H1       HT       0.417000       1.00800           0
     30926 TIP3     2872     TIP3     H2       HT       0.417000       1.00800           0
     30927 TIP3     2873     TIP3     OH2      OT      -0.834000       15.9994           0
     30928 TIP3     2873     TIP3     H1       HT       0.417000       1.00800           0
     30929 TIP3     2873     TIP3     H2       HT       0.417000       1.00800           0
     30930 TIP3     2874     TIP3     OH2      OT      -0.834000       15.9994           0
     30931 TIP3     2874     TIP3     H1       HT       0.417000       1.00800           0
     30932 TIP3     2874     TIP3     H2       HT       0.417000       1.00800           0
     30933 TIP3     2875     TIP3     OH2      OT      -0.834000       15.9994           0
     30934 TIP3     2875     TIP3     H1       HT       0.417000       1.00800           0
     30935 TIP3     2875     TIP3     H2       HT       0.417000       1.00800           0
     30936 TIP3     2876     TIP3     OH2      OT      -0.834000       15.9994           0
     30937 TIP3     2876     TIP3     H1       HT       0.417000       1.00800           0
     30938 TIP3     2876     TIP3     H2       HT       0.417000       1.00800           0
     30939 TIP3     2877     TIP3     OH2      OT      -0.834000       15.9994           0
     30940 TIP3     2877     TIP3     H1       HT       0.417000       1.00800           0
     30941 TIP3     2877     TIP3     H2       HT       0.417000       1.00800           0
     30942 TIP3     2878     TIP3     OH2      OT      -0.834000       15.9994           0
     30943 TIP3     2878     TIP3     H1       HT       0.417000       1.00800           0
     30944 TIP3     2878     TIP3     H2       HT       0.417000       1.00800           0
     30945 TIP3     2879     TIP3     OH2      OT      -0.834000       15.9994           0
     30946 TIP3     2879     TIP3     H1       HT       0.417000       1.00800           0
     30947 TIP3     2879     TIP3     H2       HT       0.417000       1.00800           0
     30948 TIP3     2880     TIP3     OH2      OT      -0.834000       15.9994           0
     30949 TIP3     2880     TIP3     H1       HT       0.417000       1.00800           0
     30950 TIP3     2880     TIP3     H2       HT       0.417000       1.00800           0
     30951 TIP3     2881     TIP3     OH2      OT      -0.834000       15.9994           0
     30952 TIP3     2881     TIP3     H1       HT       0.417000       1.00800           0
     30953 TIP3     2881     TIP3     H2       HT       0.417000       1.00800           0
     30954 TIP3     2882     TIP3     OH2      OT      -0.834000       15.9994           0
     30955 TIP3     2882     TIP3     H1       HT       0.417000       1.00800           0
     30956 TIP3     2882     TIP3     H2       HT       0.417000       1.00800           0
     30957 TIP3     2883     TIP3     OH2      OT      -0.834000       15.9994           0
     30958 TIP3     2883     TIP3     H1       HT       0.417000       1.00800           0
     30959 TIP3     2883     TIP3     H2       HT       0.417000       1.00800           0
     30960 TIP3     2884     TIP3     OH2      OT      -0.834000       15.9994           0
     30961 TIP3     2884     TIP3     H1       HT       0.417000       1.00800           0
     30962 TIP3     2884     TIP3     H2       HT       0.417000       1.00800           0
     30963 TIP3     2885     TIP3     OH2      OT      -0.834000       15.9994           0
     30964 TIP3     2885     TIP3     H1       HT       0.417000       1.00800           0
     30965 TIP3     2885     TIP3     H2       HT       0.417000       1.00800           0
     30966 TIP3     2886     TIP3     OH2      OT      -0.834000       15.9994           0
     30967 TIP3     2886     TIP3     H1       HT       0.417000       1.00800           0
     30968 TIP3     2886     TIP3     H2       HT       0.417000       1.00800           0
     30969 TIP3     2887     TIP3     OH2      OT      -0.834000       15.9994           0
     30970 TIP3     2887     TIP3     H1       HT       0.417000       1.00800           0
     30971 TIP3     2887     TIP3     H2       HT       0.417000       1.00800           0
     30972 TIP3     2888     TIP3     OH2      OT      -0.834000       15.9994           0
     30973 TIP3     2888     TIP3     H1       HT       0.417000       1.00800           0
     30974 TIP3     2888     TIP3     H2       HT       0.417000       1.00800           0
     30975 TIP3     2889     TIP3     OH2      OT      -0.834000       15.9994           0
     30976 TIP3     2889     TIP3     H1       HT       0.417000       1.00800           0
     30977 TIP3     2889     TIP3     H2       HT       0.417000       1.00800           0
     30978 TIP3     2890     TIP3     OH2      OT      -0.834000       15.9994           0
     30979 TIP3     2890     TIP3     H1       HT       0.417000       1.00800           0
     30980 TIP3     2890     TIP3     H2       HT       0.417000       1.00800           0
     30981 TIP3     2891     TIP3     OH2      OT      -0.834000       15.9994           0
     30982 TIP3     2891     TIP3     H1       HT       0.417000       1.00800           0
     30983 TIP3     2891     TIP3     H2       HT       0.417000       1.00800           0
     30984 TIP3     2892     TIP3     OH2      OT      -0.834000       15.9994           0
     30985 TIP3     2892     TIP3     H1       HT       0.417000       1.00800           0
     30986 TIP3     2892     TIP3     H2       HT       0.417000       1.00800           0
     30987 TIP3     2893     TIP3     OH2      OT      -0.834000       15.9994           0
     30988 TIP3     2893     TIP3     H1       HT       0.417000       1.00800           0
     30989 TIP3     2893     TIP3     H2       HT       0.417000       1.00800           0
     30990 TIP3     2894     TIP3     OH2      OT      -0.834000       15.9994           0
     30991 TIP3     2894     TIP3     H1       HT       0.417000       1.00800           0
     30992 TIP3     2894     TIP3     H2       HT       0.417000       1.00800           0
     30993 TIP3     2895     TIP3     OH2      OT      -0.834000       15.9994           0
     30994 TIP3     2895     TIP3     H1       HT       0.417000       1.00800           0
     30995 TIP3     2895     TIP3     H2       HT       0.417000       1.00800           0
     30996 TIP3     2896     TIP3     OH2      OT      -0.834000       15.9994           0
     30997 TIP3     2896     TIP3     H1       HT       0.417000       1.00800           0
     30998 TIP3     2896     TIP3     H2       HT       0.417000       1.00800           0
     30999 TIP3     2897     TIP3     OH2      OT      -0.834000       15.9994           0
     31000 TIP3     2897     TIP3     H1       HT       0.417000       1.00800           0
     31001 TIP3     2897     TIP3     H2       HT       0.417000       1.00800           0
     31002 TIP3     2898     TIP3     OH2      OT      -0.834000       15.9994           0
     31003 TIP3     2898     TIP3     H1       HT       0.417000       1.00800           0
     31004 TIP3     2898     TIP3     H2       HT       0.417000       1.00800           0
     31005 TIP3     2899     TIP3     OH2      OT      -0.834000       15.9994           0
     31006 TIP3     2899     TIP3     H1       HT       0.417000       1.00800           0
     31007 TIP3     2899     TIP3     H2       HT       0.417000       1.00800           0
     31008 TIP3     2900     TIP3     OH2      OT      -0.834000       15.9994           0
     31009 TIP3     2900     TIP3     H1       HT       0.417000       1.00800           0
     31010 TIP3     2900     TIP3     H2       HT       0.417000       1.00800           0
     31011 TIP3     2901     TIP3     OH2      OT      -0.834000       15.9994           0
     31012 TIP3     2901     TIP3     H1       HT       0.417000       1.00800           0
     31013 TIP3     2901     TIP3     H2       HT       0.417000       1.00800           0
     31014 TIP3     2902     TIP3     OH2      OT      -0.834000       15.9994           0
     31015 TIP3     2902     TIP3     H1       HT       0.417000       1.00800           0
     31016 TIP3     2902     TIP3     H2       HT       0.417000       1.00800           0
     31017 TIP3     2903     TIP3     OH2      OT      -0.834000       15.9994           0
     31018 TIP3     2903     TIP3     H1       HT       0.417000       1.00800           0
     31019 TIP3     2903     TIP3     H2       HT       0.417000       1.00800           0
     31020 TIP3     2904     TIP3     OH2      OT      -0.834000       15.9994           0
     31021 TIP3     2904     TIP3     H1       HT       0.417000       1.00800           0
     31022 TIP3     2904     TIP3     H2       HT       0.417000       1.00800           0
     31023 TIP3     2905     TIP3     OH2      OT      -0.834000       15.9994           0
     31024 TIP3     2905     TIP3     H1       HT       0.417000       1.00800           0
     31025 TIP3     2905     TIP3     H2       HT       0.417000       1.00800           0
     31026 TIP3     2906     TIP3     OH2      OT      -0.834000       15.9994           0
     31027 TIP3     2906     TIP3     H1       HT       0.417000       1.00800           0
     31028 TIP3     2906     TIP3     H2       HT       0.417000       1.00800           0
     31029 TIP3     2907     TIP3     OH2      OT      -0.834000       15.9994           0
     31030 TIP3     2907     TIP3     H1       HT       0.417000       1.00800           0
     31031 TIP3     2907     TIP3     H2       HT       0.417000       1.00800           0
     31032 TIP3     2908     TIP3     OH2      OT      -0.834000       15.9994           0
     31033 TIP3     2908     TIP3     H1       HT       0.417000       1.00800           0
     31034 TIP3     2908     TIP3     H2       HT       0.417000       1.00800           0
     31035 TIP3     2909     TIP3     OH2      OT      -0.834000       15.9994           0
     31036 TIP3     2909     TIP3     H1       HT       0.417000       1.00800           0
     31037 TIP3     2909     TIP3     H2       HT       0.417000       1.00800           0
     31038 TIP3     2910     TIP3     OH2      OT      -0.834000       15.9994           0
     31039 TIP3     2910     TIP3     H1       HT       0.417000       1.00800           0
     31040 TIP3     2910     TIP3     H2       HT       0.417000       1.00800           0
     31041 TIP3     2911     TIP3     OH2      OT      -0.834000       15.9994           0
     31042 TIP3     2911     TIP3     H1       HT       0.417000       1.00800           0
     31043 TIP3     2911     TIP3     H2       HT       0.417000       1.00800           0
     31044 TIP3     2912     TIP3     OH2      OT      -0.834000       15.9994           0
     31045 TIP3     2912     TIP3     H1       HT       0.417000       1.00800           0
     31046 TIP3     2912     TIP3     H2       HT       0.417000       1.00800           0
     31047 TIP3     2913     TIP3     OH2      OT      -0.834000       15.9994           0
     31048 TIP3     2913     TIP3     H1       HT       0.417000       1.00800           0
     31049 TIP3     2913     TIP3     H2       HT       0.417000       1.00800           0
     31050 TIP3     2914     TIP3     OH2      OT      -0.834000       15.9994           0
     31051 TIP3     2914     TIP3     H1       HT       0.417000       1.00800           0
     31052 TIP3     2914     TIP3     H2       HT       0.417000       1.00800           0
     31053 TIP3     2915     TIP3     OH2      OT      -0.834000       15.9994           0
     31054 TIP3     2915     TIP3     H1       HT       0.417000       1.00800           0
     31055 TIP3     2915     TIP3     H2       HT       0.417000       1.00800           0
     31056 TIP3     2916     TIP3     OH2      OT      -0.834000       15.9994           0
     31057 TIP3     2916     TIP3     H1       HT       0.417000       1.00800           0
     31058 TIP3     2916     TIP3     H2       HT       0.417000       1.00800           0
     31059 TIP3     2917     TIP3     OH2      OT      -0.834000       15.9994           0
     31060 TIP3     2917     TIP3     H1       HT       0.417000       1.00800           0
     31061 TIP3     2917     TIP3     H2       HT       0.417000       1.00800           0
     31062 TIP3     2918     TIP3     OH2      OT      -0.834000       15.9994           0
     31063 TIP3     2918     TIP3     H1       HT       0.417000       1.00800           0
     31064 TIP3     2918     TIP3     H2       HT       0.417000       1.00800           0
     31065 TIP3     2919     TIP3     OH2      OT      -0.834000       15.9994           0
     31066 TIP3     2919     TIP3     H1       HT       0.417000       1.00800           0
     31067 TIP3     2919     TIP3     H2       HT       0.417000       1.00800           0
     31068 TIP3     2920     TIP3     OH2      OT      -0.834000       15.9994           0
     31069 TIP3     2920     TIP3     H1       HT       0.417000       1.00800           0
     31070 TIP3     2920     TIP3     H2       HT       0.417000       1.00800           0
     31071 TIP3     2921     TIP3     OH2      OT      -0.834000       15.9994           0
     31072 TIP3     2921     TIP3     H1       HT       0.417000       1.00800           0
     31073 TIP3     2921     TIP3     H2       HT       0.417000       1.00800           0
     31074 TIP3     2922     TIP3     OH2      OT      -0.834000       15.9994           0
     31075 TIP3     2922     TIP3     H1       HT       0.417000       1.00800           0
     31076 TIP3     2922     TIP3     H2       HT       0.417000       1.00800           0
     31077 TIP3     2923     TIP3     OH2      OT      -0.834000       15.9994           0
     31078 TIP3     2923     TIP3     H1       HT       0.417000       1.00800           0
     31079 TIP3     2923     TIP3     H2       HT       0.417000       1.00800           0
     31080 TIP3     2924     TIP3     OH2      OT      -0.834000       15.9994           0
     31081 TIP3     2924     TIP3     H1       HT       0.417000       1.00800           0
     31082 TIP3     2924     TIP3     H2       HT       0.417000       1.00800           0
     31083 TIP3     2925     TIP3     OH2      OT      -0.834000       15.9994           0
     31084 TIP3     2925     TIP3     H1       HT       0.417000       1.00800           0
     31085 TIP3     2925     TIP3     H2       HT       0.417000       1.00800           0
     31086 TIP3     2926     TIP3     OH2      OT      -0.834000       15.9994           0
     31087 TIP3     2926     TIP3     H1       HT       0.417000       1.00800           0
     31088 TIP3     2926     TIP3     H2       HT       0.417000       1.00800           0
     31089 TIP3     2927     TIP3     OH2      OT      -0.834000       15.9994           0
     31090 TIP3     2927     TIP3     H1       HT       0.417000       1.00800           0
     31091 TIP3     2927     TIP3     H2       HT       0.417000       1.00800           0
     31092 TIP3     2928     TIP3     OH2      OT      -0.834000       15.9994           0
     31093 TIP3     2928     TIP3     H1       HT       0.417000       1.00800           0
     31094 TIP3     2928     TIP3     H2       HT       0.417000       1.00800           0
     31095 TIP3     2929     TIP3     OH2      OT      -0.834000       15.9994           0
     31096 TIP3     2929     TIP3     H1       HT       0.417000       1.00800           0
     31097 TIP3     2929     TIP3     H2       HT       0.417000       1.00800           0
     31098 TIP3     2930     TIP3     OH2      OT      -0.834000       15.9994           0
     31099 TIP3     2930     TIP3     H1       HT       0.417000       1.00800           0
     31100 TIP3     2930     TIP3     H2       HT       0.417000       1.00800           0
     31101 TIP3     2931     TIP3     OH2      OT      -0.834000       15.9994           0
     31102 TIP3     2931     TIP3     H1       HT       0.417000       1.00800           0
     31103 TIP3     2931     TIP3     H2       HT       0.417000       1.00800           0
     31104 TIP3     2932     TIP3     OH2      OT      -0.834000       15.9994           0
     31105 TIP3     2932     TIP3     H1       HT       0.417000       1.00800           0
     31106 TIP3     2932     TIP3     H2       HT       0.417000       1.00800           0
     31107 TIP3     2933     TIP3     OH2      OT      -0.834000       15.9994           0
     31108 TIP3     2933     TIP3     H1       HT       0.417000       1.00800           0
     31109 TIP3     2933     TIP3     H2       HT       0.417000       1.00800           0
     31110 TIP3     2934     TIP3     OH2      OT      -0.834000       15.9994           0
     31111 TIP3     2934     TIP3     H1       HT       0.417000       1.00800           0
     31112 TIP3     2934     TIP3     H2       HT       0.417000       1.00800           0
     31113 TIP3     2935     TIP3     OH2      OT      -0.834000       15.9994           0
     31114 TIP3     2935     TIP3     H1       HT       0.417000       1.00800           0
     31115 TIP3     2935     TIP3     H2       HT       0.417000       1.00800           0
     31116 TIP3     2936     TIP3     OH2      OT      -0.834000       15.9994           0
     31117 TIP3     2936     TIP3     H1       HT       0.417000       1.00800           0
     31118 TIP3     2936     TIP3     H2       HT       0.417000       1.00800           0
     31119 TIP3     2937     TIP3     OH2      OT      -0.834000       15.9994           0
     31120 TIP3     2937     TIP3     H1       HT       0.417000       1.00800           0
     31121 TIP3     2937     TIP3     H2       HT       0.417000       1.00800           0
     31122 TIP3     2938     TIP3     OH2      OT      -0.834000       15.9994           0
     31123 TIP3     2938     TIP3     H1       HT       0.417000       1.00800           0
     31124 TIP3     2938     TIP3     H2       HT       0.417000       1.00800           0
     31125 TIP3     2939     TIP3     OH2      OT      -0.834000       15.9994           0
     31126 TIP3     2939     TIP3     H1       HT       0.417000       1.00800           0
     31127 TIP3     2939     TIP3     H2       HT       0.417000       1.00800           0
     31128 TIP3     2940     TIP3     OH2      OT      -0.834000       15.9994           0
     31129 TIP3     2940     TIP3     H1       HT       0.417000       1.00800           0
     31130 TIP3     2940     TIP3     H2       HT       0.417000       1.00800           0
     31131 TIP3     2941     TIP3     OH2      OT      -0.834000       15.9994           0
     31132 TIP3     2941     TIP3     H1       HT       0.417000       1.00800           0
     31133 TIP3     2941     TIP3     H2       HT       0.417000       1.00800           0
     31134 TIP3     2942     TIP3     OH2      OT      -0.834000       15.9994           0
     31135 TIP3     2942     TIP3     H1       HT       0.417000       1.00800           0
     31136 TIP3     2942     TIP3     H2       HT       0.417000       1.00800           0
     31137 TIP3     2943     TIP3     OH2      OT      -0.834000       15.9994           0
     31138 TIP3     2943     TIP3     H1       HT       0.417000       1.00800           0
     31139 TIP3     2943     TIP3     H2       HT       0.417000       1.00800           0
     31140 TIP3     2944     TIP3     OH2      OT      -0.834000       15.9994           0
     31141 TIP3     2944     TIP3     H1       HT       0.417000       1.00800           0
     31142 TIP3     2944     TIP3     H2       HT       0.417000       1.00800           0
     31143 TIP3     2945     TIP3     OH2      OT      -0.834000       15.9994           0
     31144 TIP3     2945     TIP3     H1       HT       0.417000       1.00800           0
     31145 TIP3     2945     TIP3     H2       HT       0.417000       1.00800           0
     31146 TIP3     2946     TIP3     OH2      OT      -0.834000       15.9994           0
     31147 TIP3     2946     TIP3     H1       HT       0.417000       1.00800           0
     31148 TIP3     2946     TIP3     H2       HT       0.417000       1.00800           0
     31149 TIP3     2947     TIP3     OH2      OT      -0.834000       15.9994           0
     31150 TIP3     2947     TIP3     H1       HT       0.417000       1.00800           0
     31151 TIP3     2947     TIP3     H2       HT       0.417000       1.00800           0
     31152 TIP3     2948     TIP3     OH2      OT      -0.834000       15.9994           0
     31153 TIP3     2948     TIP3     H1       HT       0.417000       1.00800           0
     31154 TIP3     2948     TIP3     H2       HT       0.417000       1.00800           0
     31155 TIP3     2949     TIP3     OH2      OT      -0.834000       15.9994           0
     31156 TIP3     2949     TIP3     H1       HT       0.417000       1.00800           0
     31157 TIP3     2949     TIP3     H2       HT       0.417000       1.00800           0
     31158 TIP3     2950     TIP3     OH2      OT      -0.834000       15.9994           0
     31159 TIP3     2950     TIP3     H1       HT       0.417000       1.00800           0
     31160 TIP3     2950     TIP3     H2       HT       0.417000       1.00800           0
     31161 TIP3     2951     TIP3     OH2      OT      -0.834000       15.9994           0
     31162 TIP3     2951     TIP3     H1       HT       0.417000       1.00800           0
     31163 TIP3     2951     TIP3     H2       HT       0.417000       1.00800           0
     31164 TIP3     2952     TIP3     OH2      OT      -0.834000       15.9994           0
     31165 TIP3     2952     TIP3     H1       HT       0.417000       1.00800           0
     31166 TIP3     2952     TIP3     H2       HT       0.417000       1.00800           0
     31167 TIP3     2953     TIP3     OH2      OT      -0.834000       15.9994           0
     31168 TIP3     2953     TIP3     H1       HT       0.417000       1.00800           0
     31169 TIP3     2953     TIP3     H2       HT       0.417000       1.00800           0
     31170 TIP3     2954     TIP3     OH2      OT      -0.834000       15.9994           0
     31171 TIP3     2954     TIP3     H1       HT       0.417000       1.00800           0
     31172 TIP3     2954     TIP3     H2       HT       0.417000       1.00800           0
     31173 TIP3     2955     TIP3     OH2      OT      -0.834000       15.9994           0
     31174 TIP3     2955     TIP3     H1       HT       0.417000       1.00800           0
     31175 TIP3     2955     TIP3     H2       HT       0.417000       1.00800           0
     31176 TIP3     2956     TIP3     OH2      OT      -0.834000       15.9994           0
     31177 TIP3     2956     TIP3     H1       HT       0.417000       1.00800           0
     31178 TIP3     2956     TIP3     H2       HT       0.417000       1.00800           0
     31179 TIP3     2957     TIP3     OH2      OT      -0.834000       15.9994           0
     31180 TIP3     2957     TIP3     H1       HT       0.417000       1.00800           0
     31181 TIP3     2957     TIP3     H2       HT       0.417000       1.00800           0
     31182 TIP3     2958     TIP3     OH2      OT      -0.834000       15.9994           0
     31183 TIP3     2958     TIP3     H1       HT       0.417000       1.00800           0
     31184 TIP3     2958     TIP3     H2       HT       0.417000       1.00800           0
     31185 TIP3     2959     TIP3     OH2      OT      -0.834000       15.9994           0
     31186 TIP3     2959     TIP3     H1       HT       0.417000       1.00800           0
     31187 TIP3     2959     TIP3     H2       HT       0.417000       1.00800           0
     31188 TIP3     2960     TIP3     OH2      OT      -0.834000       15.9994           0
     31189 TIP3     2960     TIP3     H1       HT       0.417000       1.00800           0
     31190 TIP3     2960     TIP3     H2       HT       0.417000       1.00800           0
     31191 TIP3     2961     TIP3     OH2      OT      -0.834000       15.9994           0
     31192 TIP3     2961     TIP3     H1       HT       0.417000       1.00800           0
     31193 TIP3     2961     TIP3     H2       HT       0.417000       1.00800           0
     31194 TIP3     2962     TIP3     OH2      OT      -0.834000       15.9994           0
     31195 TIP3     2962     TIP3     H1       HT       0.417000       1.00800           0
     31196 TIP3     2962     TIP3     H2       HT       0.417000       1.00800           0
     31197 TIP3     2963     TIP3     OH2      OT      -0.834000       15.9994           0
     31198 TIP3     2963     TIP3     H1       HT       0.417000       1.00800           0
     31199 TIP3     2963     TIP3     H2       HT       0.417000       1.00800           0
     31200 TIP3     2964     TIP3     OH2      OT      -0.834000       15.9994           0
     31201 TIP3     2964     TIP3     H1       HT       0.417000       1.00800           0
     31202 TIP3     2964     TIP3     H2       HT       0.417000       1.00800           0
     31203 TIP3     2965     TIP3     OH2      OT      -0.834000       15.9994           0
     31204 TIP3     2965     TIP3     H1       HT       0.417000       1.00800           0
     31205 TIP3     2965     TIP3     H2       HT       0.417000       1.00800           0
     31206 TIP3     2966     TIP3     OH2      OT      -0.834000       15.9994           0
     31207 TIP3     2966     TIP3     H1       HT       0.417000       1.00800           0
     31208 TIP3     2966     TIP3     H2       HT       0.417000       1.00800           0
     31209 TIP3     2967     TIP3     OH2      OT      -0.834000       15.9994           0
     31210 TIP3     2967     TIP3     H1       HT       0.417000       1.00800           0
     31211 TIP3     2967     TIP3     H2       HT       0.417000       1.00800           0
     31212 TIP3     2968     TIP3     OH2      OT      -0.834000       15.9994           0
     31213 TIP3     2968     TIP3     H1       HT       0.417000       1.00800           0
     31214 TIP3     2968     TIP3     H2       HT       0.417000       1.00800           0
     31215 TIP3     2969     TIP3     OH2      OT      -0.834000       15.9994           0
     31216 TIP3     2969     TIP3     H1       HT       0.417000       1.00800           0
     31217 TIP3     2969     TIP3     H2       HT       0.417000       1.00800           0
     31218 TIP3     2970     TIP3     OH2      OT      -0.834000       15.9994           0
     31219 TIP3     2970     TIP3     H1       HT       0.417000       1.00800           0
     31220 TIP3     2970     TIP3     H2       HT       0.417000       1.00800           0
     31221 TIP3     2971     TIP3     OH2      OT      -0.834000       15.9994           0
     31222 TIP3     2971     TIP3     H1       HT       0.417000       1.00800           0
     31223 TIP3     2971     TIP3     H2       HT       0.417000       1.00800           0
     31224 TIP3     2972     TIP3     OH2      OT      -0.834000       15.9994           0
     31225 TIP3     2972     TIP3     H1       HT       0.417000       1.00800           0
     31226 TIP3     2972     TIP3     H2       HT       0.417000       1.00800           0
     31227 TIP3     2973     TIP3     OH2      OT      -0.834000       15.9994           0
     31228 TIP3     2973     TIP3     H1       HT       0.417000       1.00800           0
     31229 TIP3     2973     TIP3     H2       HT       0.417000       1.00800           0
     31230 TIP3     2974     TIP3     OH2      OT      -0.834000       15.9994           0
     31231 TIP3     2974     TIP3     H1       HT       0.417000       1.00800           0
     31232 TIP3     2974     TIP3     H2       HT       0.417000       1.00800           0
     31233 TIP3     2975     TIP3     OH2      OT      -0.834000       15.9994           0
     31234 TIP3     2975     TIP3     H1       HT       0.417000       1.00800           0
     31235 TIP3     2975     TIP3     H2       HT       0.417000       1.00800           0
     31236 TIP3     2976     TIP3     OH2      OT      -0.834000       15.9994           0
     31237 TIP3     2976     TIP3     H1       HT       0.417000       1.00800           0
     31238 TIP3     2976     TIP3     H2       HT       0.417000       1.00800           0
     31239 TIP3     2977     TIP3     OH2      OT      -0.834000       15.9994           0
     31240 TIP3     2977     TIP3     H1       HT       0.417000       1.00800           0
     31241 TIP3     2977     TIP3     H2       HT       0.417000       1.00800           0
     31242 TIP3     2978     TIP3     OH2      OT      -0.834000       15.9994           0
     31243 TIP3     2978     TIP3     H1       HT       0.417000       1.00800           0
     31244 TIP3     2978     TIP3     H2       HT       0.417000       1.00800           0
     31245 TIP3     2979     TIP3     OH2      OT      -0.834000       15.9994           0
     31246 TIP3     2979     TIP3     H1       HT       0.417000       1.00800           0
     31247 TIP3     2979     TIP3     H2       HT       0.417000       1.00800           0
     31248 TIP3     2980     TIP3     OH2      OT      -0.834000       15.9994           0
     31249 TIP3     2980     TIP3     H1       HT       0.417000       1.00800           0
     31250 TIP3     2980     TIP3     H2       HT       0.417000       1.00800           0
     31251 TIP3     2981     TIP3     OH2      OT      -0.834000       15.9994           0
     31252 TIP3     2981     TIP3     H1       HT       0.417000       1.00800           0
     31253 TIP3     2981     TIP3     H2       HT       0.417000       1.00800           0
     31254 TIP3     2982     TIP3     OH2      OT      -0.834000       15.9994           0
     31255 TIP3     2982     TIP3     H1       HT       0.417000       1.00800           0
     31256 TIP3     2982     TIP3     H2       HT       0.417000       1.00800           0
     31257 TIP3     2983     TIP3     OH2      OT      -0.834000       15.9994           0
     31258 TIP3     2983     TIP3     H1       HT       0.417000       1.00800           0
     31259 TIP3     2983     TIP3     H2       HT       0.417000       1.00800           0
     31260 TIP3     2984     TIP3     OH2      OT      -0.834000       15.9994           0
     31261 TIP3     2984     TIP3     H1       HT       0.417000       1.00800           0
     31262 TIP3     2984     TIP3     H2       HT       0.417000       1.00800           0
     31263 TIP3     2985     TIP3     OH2      OT      -0.834000       15.9994           0
     31264 TIP3     2985     TIP3     H1       HT       0.417000       1.00800           0
     31265 TIP3     2985     TIP3     H2       HT       0.417000       1.00800           0
     31266 TIP3     2986     TIP3     OH2      OT      -0.834000       15.9994           0
     31267 TIP3     2986     TIP3     H1       HT       0.417000       1.00800           0
     31268 TIP3     2986     TIP3     H2       HT       0.417000       1.00800           0
     31269 TIP3     2987     TIP3     OH2      OT      -0.834000       15.9994           0
     31270 TIP3     2987     TIP3     H1       HT       0.417000       1.00800           0
     31271 TIP3     2987     TIP3     H2       HT       0.417000       1.00800           0
     31272 TIP3     2988     TIP3     OH2      OT      -0.834000       15.9994           0
     31273 TIP3     2988     TIP3     H1       HT       0.417000       1.00800           0
     31274 TIP3     2988     TIP3     H2       HT       0.417000       1.00800           0
     31275 TIP3     2989     TIP3     OH2      OT      -0.834000       15.9994           0
     31276 TIP3     2989     TIP3     H1       HT       0.417000       1.00800           0
     31277 TIP3     2989     TIP3     H2       HT       0.417000       1.00800           0
     31278 TIP3     2990     TIP3     OH2      OT      -0.834000       15.9994           0
     31279 TIP3     2990     TIP3     H1       HT       0.417000       1.00800           0
     31280 TIP3     2990     TIP3     H2       HT       0.417000       1.00800           0
     31281 TIP3     2991     TIP3     OH2      OT      -0.834000       15.9994           0
     31282 TIP3     2991     TIP3     H1       HT       0.417000       1.00800           0
     31283 TIP3     2991     TIP3     H2       HT       0.417000       1.00800           0
     31284 TIP3     2992     TIP3     OH2      OT      -0.834000       15.9994           0
     31285 TIP3     2992     TIP3     H1       HT       0.417000       1.00800           0
     31286 TIP3     2992     TIP3     H2       HT       0.417000       1.00800           0
     31287 TIP3     2993     TIP3     OH2      OT      -0.834000       15.9994           0
     31288 TIP3     2993     TIP3     H1       HT       0.417000       1.00800           0
     31289 TIP3     2993     TIP3     H2       HT       0.417000       1.00800           0
     31290 TIP3     2994     TIP3     OH2      OT      -0.834000       15.9994           0
     31291 TIP3     2994     TIP3     H1       HT       0.417000       1.00800           0
     31292 TIP3     2994     TIP3     H2       HT       0.417000       1.00800           0
     31293 TIP3     2995     TIP3     OH2      OT      -0.834000       15.9994           0
     31294 TIP3     2995     TIP3     H1       HT       0.417000       1.00800           0
     31295 TIP3     2995     TIP3     H2       HT       0.417000       1.00800           0
     31296 TIP3     2996     TIP3     OH2      OT      -0.834000       15.9994           0
     31297 TIP3     2996     TIP3     H1       HT       0.417000       1.00800           0
     31298 TIP3     2996     TIP3     H2       HT       0.417000       1.00800           0
     31299 TIP3     2997     TIP3     OH2      OT      -0.834000       15.9994           0
     31300 TIP3     2997     TIP3     H1       HT       0.417000       1.00800           0
     31301 TIP3     2997     TIP3     H2       HT       0.417000       1.00800           0
     31302 TIP3     2998     TIP3     OH2      OT      -0.834000       15.9994           0
     31303 TIP3     2998     TIP3     H1       HT       0.417000       1.00800           0
     31304 TIP3     2998     TIP3     H2       HT       0.417000       1.00800           0
     31305 TIP3     2999     TIP3     OH2      OT      -0.834000       15.9994           0
     31306 TIP3     2999     TIP3     H1       HT       0.417000       1.00800           0
     31307 TIP3     2999     TIP3     H2       HT       0.417000       1.00800           0
     31308 TIP3     3000     TIP3     OH2      OT      -0.834000       15.9994           0
     31309 TIP3     3000     TIP3     H1       HT       0.417000       1.00800           0
     31310 TIP3     3000     TIP3     H2       HT       0.417000       1.00800           0
     31311 TIP3     3001     TIP3     OH2      OT      -0.834000       15.9994           0
     31312 TIP3     3001     TIP3     H1       HT       0.417000       1.00800           0
     31313 TIP3     3001     TIP3     H2       HT       0.417000       1.00800           0
     31314 TIP3     3002     TIP3     OH2      OT      -0.834000       15.9994           0
     31315 TIP3     3002     TIP3     H1       HT       0.417000       1.00800           0
     31316 TIP3     3002     TIP3     H2       HT       0.417000       1.00800           0
     31317 TIP3     3003     TIP3     OH2      OT      -0.834000       15.9994           0
     31318 TIP3     3003     TIP3     H1       HT       0.417000       1.00800           0
     31319 TIP3     3003     TIP3     H2       HT       0.417000       1.00800           0
     31320 TIP3     3004     TIP3     OH2      OT      -0.834000       15.9994           0
     31321 TIP3     3004     TIP3     H1       HT       0.417000       1.00800           0
     31322 TIP3     3004     TIP3     H2       HT       0.417000       1.00800           0
     31323 TIP3     3005     TIP3     OH2      OT      -0.834000       15.9994           0
     31324 TIP3     3005     TIP3     H1       HT       0.417000       1.00800           0
     31325 TIP3     3005     TIP3     H2       HT       0.417000       1.00800           0
     31326 TIP3     3006     TIP3     OH2      OT      -0.834000       15.9994           0
     31327 TIP3     3006     TIP3     H1       HT       0.417000       1.00800           0
     31328 TIP3     3006     TIP3     H2       HT       0.417000       1.00800           0
     31329 TIP3     3007     TIP3     OH2      OT      -0.834000       15.9994           0
     31330 TIP3     3007     TIP3     H1       HT       0.417000       1.00800           0
     31331 TIP3     3007     TIP3     H2       HT       0.417000       1.00800           0
     31332 TIP3     3008     TIP3     OH2      OT      -0.834000       15.9994           0
     31333 TIP3     3008     TIP3     H1       HT       0.417000       1.00800           0
     31334 TIP3     3008     TIP3     H2       HT       0.417000       1.00800           0
     31335 TIP3     3009     TIP3     OH2      OT      -0.834000       15.9994           0
     31336 TIP3     3009     TIP3     H1       HT       0.417000       1.00800           0
     31337 TIP3     3009     TIP3     H2       HT       0.417000       1.00800           0
     31338 TIP3     3010     TIP3     OH2      OT      -0.834000       15.9994           0
     31339 TIP3     3010     TIP3     H1       HT       0.417000       1.00800           0
     31340 TIP3     3010     TIP3     H2       HT       0.417000       1.00800           0
     31341 TIP3     3011     TIP3     OH2      OT      -0.834000       15.9994           0
     31342 TIP3     3011     TIP3     H1       HT       0.417000       1.00800           0
     31343 TIP3     3011     TIP3     H2       HT       0.417000       1.00800           0
     31344 TIP3     3012     TIP3     OH2      OT      -0.834000       15.9994           0
     31345 TIP3     3012     TIP3     H1       HT       0.417000       1.00800           0
     31346 TIP3     3012     TIP3     H2       HT       0.417000       1.00800           0
     31347 TIP3     3013     TIP3     OH2      OT      -0.834000       15.9994           0
     31348 TIP3     3013     TIP3     H1       HT       0.417000       1.00800           0
     31349 TIP3     3013     TIP3     H2       HT       0.417000       1.00800           0
     31350 TIP3     3014     TIP3     OH2      OT      -0.834000       15.9994           0
     31351 TIP3     3014     TIP3     H1       HT       0.417000       1.00800           0
     31352 TIP3     3014     TIP3     H2       HT       0.417000       1.00800           0
     31353 TIP3     3015     TIP3     OH2      OT      -0.834000       15.9994           0
     31354 TIP3     3015     TIP3     H1       HT       0.417000       1.00800           0
     31355 TIP3     3015     TIP3     H2       HT       0.417000       1.00800           0
     31356 TIP3     3016     TIP3     OH2      OT      -0.834000       15.9994           0
     31357 TIP3     3016     TIP3     H1       HT       0.417000       1.00800           0
     31358 TIP3     3016     TIP3     H2       HT       0.417000       1.00800           0
     31359 TIP3     3017     TIP3     OH2      OT      -0.834000       15.9994           0
     31360 TIP3     3017     TIP3     H1       HT       0.417000       1.00800           0
     31361 TIP3     3017     TIP3     H2       HT       0.417000       1.00800           0
     31362 TIP3     3018     TIP3     OH2      OT      -0.834000       15.9994           0
     31363 TIP3     3018     TIP3     H1       HT       0.417000       1.00800           0
     31364 TIP3     3018     TIP3     H2       HT       0.417000       1.00800           0
     31365 TIP3     3019     TIP3     OH2      OT      -0.834000       15.9994           0
     31366 TIP3     3019     TIP3     H1       HT       0.417000       1.00800           0
     31367 TIP3     3019     TIP3     H2       HT       0.417000       1.00800           0
     31368 TIP3     3020     TIP3     OH2      OT      -0.834000       15.9994           0
     31369 TIP3     3020     TIP3     H1       HT       0.417000       1.00800           0
     31370 TIP3     3020     TIP3     H2       HT       0.417000       1.00800           0
     31371 TIP3     3021     TIP3     OH2      OT      -0.834000       15.9994           0
     31372 TIP3     3021     TIP3     H1       HT       0.417000       1.00800           0
     31373 TIP3     3021     TIP3     H2       HT       0.417000       1.00800           0
     31374 TIP3     3022     TIP3     OH2      OT      -0.834000       15.9994           0
     31375 TIP3     3022     TIP3     H1       HT       0.417000       1.00800           0
     31376 TIP3     3022     TIP3     H2       HT       0.417000       1.00800           0
     31377 TIP3     3023     TIP3     OH2      OT      -0.834000       15.9994           0
     31378 TIP3     3023     TIP3     H1       HT       0.417000       1.00800           0
     31379 TIP3     3023     TIP3     H2       HT       0.417000       1.00800           0
     31380 TIP3     3024     TIP3     OH2      OT      -0.834000       15.9994           0
     31381 TIP3     3024     TIP3     H1       HT       0.417000       1.00800           0
     31382 TIP3     3024     TIP3     H2       HT       0.417000       1.00800           0
     31383 TIP3     3025     TIP3     OH2      OT      -0.834000       15.9994           0
     31384 TIP3     3025     TIP3     H1       HT       0.417000       1.00800           0
     31385 TIP3     3025     TIP3     H2       HT       0.417000       1.00800           0
     31386 TIP3     3026     TIP3     OH2      OT      -0.834000       15.9994           0
     31387 TIP3     3026     TIP3     H1       HT       0.417000       1.00800           0
     31388 TIP3     3026     TIP3     H2       HT       0.417000       1.00800           0
     31389 TIP3     3027     TIP3     OH2      OT      -0.834000       15.9994           0
     31390 TIP3     3027     TIP3     H1       HT       0.417000       1.00800           0
     31391 TIP3     3027     TIP3     H2       HT       0.417000       1.00800           0
     31392 TIP3     3028     TIP3     OH2      OT      -0.834000       15.9994           0
     31393 TIP3     3028     TIP3     H1       HT       0.417000       1.00800           0
     31394 TIP3     3028     TIP3     H2       HT       0.417000       1.00800           0
     31395 TIP3     3029     TIP3     OH2      OT      -0.834000       15.9994           0
     31396 TIP3     3029     TIP3     H1       HT       0.417000       1.00800           0
     31397 TIP3     3029     TIP3     H2       HT       0.417000       1.00800           0
     31398 TIP3     3030     TIP3     OH2      OT      -0.834000       15.9994           0
     31399 TIP3     3030     TIP3     H1       HT       0.417000       1.00800           0
     31400 TIP3     3030     TIP3     H2       HT       0.417000       1.00800           0
     31401 TIP3     3031     TIP3     OH2      OT      -0.834000       15.9994           0
     31402 TIP3     3031     TIP3     H1       HT       0.417000       1.00800           0
     31403 TIP3     3031     TIP3     H2       HT       0.417000       1.00800           0
     31404 TIP3     3032     TIP3     OH2      OT      -0.834000       15.9994           0
     31405 TIP3     3032     TIP3     H1       HT       0.417000       1.00800           0
     31406 TIP3     3032     TIP3     H2       HT       0.417000       1.00800           0
     31407 TIP3     3033     TIP3     OH2      OT      -0.834000       15.9994           0
     31408 TIP3     3033     TIP3     H1       HT       0.417000       1.00800           0
     31409 TIP3     3033     TIP3     H2       HT       0.417000       1.00800           0
     31410 TIP3     3034     TIP3     OH2      OT      -0.834000       15.9994           0
     31411 TIP3     3034     TIP3     H1       HT       0.417000       1.00800           0
     31412 TIP3     3034     TIP3     H2       HT       0.417000       1.00800           0
     31413 TIP3     3035     TIP3     OH2      OT      -0.834000       15.9994           0
     31414 TIP3     3035     TIP3     H1       HT       0.417000       1.00800           0
     31415 TIP3     3035     TIP3     H2       HT       0.417000       1.00800           0
     31416 TIP3     3036     TIP3     OH2      OT      -0.834000       15.9994           0
     31417 TIP3     3036     TIP3     H1       HT       0.417000       1.00800           0
     31418 TIP3     3036     TIP3     H2       HT       0.417000       1.00800           0
     31419 TIP3     3037     TIP3     OH2      OT      -0.834000       15.9994           0
     31420 TIP3     3037     TIP3     H1       HT       0.417000       1.00800           0
     31421 TIP3     3037     TIP3     H2       HT       0.417000       1.00800           0
     31422 TIP3     3038     TIP3     OH2      OT      -0.834000       15.9994           0
     31423 TIP3     3038     TIP3     H1       HT       0.417000       1.00800           0
     31424 TIP3     3038     TIP3     H2       HT       0.417000       1.00800           0
     31425 TIP3     3039     TIP3     OH2      OT      -0.834000       15.9994           0
     31426 TIP3     3039     TIP3     H1       HT       0.417000       1.00800           0
     31427 TIP3     3039     TIP3     H2       HT       0.417000       1.00800           0
     31428 TIP3     3040     TIP3     OH2      OT      -0.834000       15.9994           0
     31429 TIP3     3040     TIP3     H1       HT       0.417000       1.00800           0
     31430 TIP3     3040     TIP3     H2       HT       0.417000       1.00800           0
     31431 TIP3     3041     TIP3     OH2      OT      -0.834000       15.9994           0
     31432 TIP3     3041     TIP3     H1       HT       0.417000       1.00800           0
     31433 TIP3     3041     TIP3     H2       HT       0.417000       1.00800           0
     31434 TIP3     3042     TIP3     OH2      OT      -0.834000       15.9994           0
     31435 TIP3     3042     TIP3     H1       HT       0.417000       1.00800           0
     31436 TIP3     3042     TIP3     H2       HT       0.417000       1.00800           0
     31437 TIP3     3043     TIP3     OH2      OT      -0.834000       15.9994           0
     31438 TIP3     3043     TIP3     H1       HT       0.417000       1.00800           0
     31439 TIP3     3043     TIP3     H2       HT       0.417000       1.00800           0
     31440 TIP3     3044     TIP3     OH2      OT      -0.834000       15.9994           0
     31441 TIP3     3044     TIP3     H1       HT       0.417000       1.00800           0
     31442 TIP3     3044     TIP3     H2       HT       0.417000       1.00800           0
     31443 TIP3     3045     TIP3     OH2      OT      -0.834000       15.9994           0
     31444 TIP3     3045     TIP3     H1       HT       0.417000       1.00800           0
     31445 TIP3     3045     TIP3     H2       HT       0.417000       1.00800           0
     31446 TIP3     3046     TIP3     OH2      OT      -0.834000       15.9994           0
     31447 TIP3     3046     TIP3     H1       HT       0.417000       1.00800           0
     31448 TIP3     3046     TIP3     H2       HT       0.417000       1.00800           0
     31449 TIP3     3047     TIP3     OH2      OT      -0.834000       15.9994           0
     31450 TIP3     3047     TIP3     H1       HT       0.417000       1.00800           0
     31451 TIP3     3047     TIP3     H2       HT       0.417000       1.00800           0
     31452 TIP3     3048     TIP3     OH2      OT      -0.834000       15.9994           0
     31453 TIP3     3048     TIP3     H1       HT       0.417000       1.00800           0
     31454 TIP3     3048     TIP3     H2       HT       0.417000       1.00800           0
     31455 TIP3     3049     TIP3     OH2      OT      -0.834000       15.9994           0
     31456 TIP3     3049     TIP3     H1       HT       0.417000       1.00800           0
     31457 TIP3     3049     TIP3     H2       HT       0.417000       1.00800           0
     31458 TIP3     3050     TIP3     OH2      OT      -0.834000       15.9994           0
     31459 TIP3     3050     TIP3     H1       HT       0.417000       1.00800           0
     31460 TIP3     3050     TIP3     H2       HT       0.417000       1.00800           0
     31461 TIP3     3051     TIP3     OH2      OT      -0.834000       15.9994           0
     31462 TIP3     3051     TIP3     H1       HT       0.417000       1.00800           0
     31463 TIP3     3051     TIP3     H2       HT       0.417000       1.00800           0
     31464 TIP3     3052     TIP3     OH2      OT      -0.834000       15.9994           0
     31465 TIP3     3052     TIP3     H1       HT       0.417000       1.00800           0
     31466 TIP3     3052     TIP3     H2       HT       0.417000       1.00800           0
     31467 TIP3     3053     TIP3     OH2      OT      -0.834000       15.9994           0
     31468 TIP3     3053     TIP3     H1       HT       0.417000       1.00800           0
     31469 TIP3     3053     TIP3     H2       HT       0.417000       1.00800           0
     31470 TIP3     3054     TIP3     OH2      OT      -0.834000       15.9994           0
     31471 TIP3     3054     TIP3     H1       HT       0.417000       1.00800           0
     31472 TIP3     3054     TIP3     H2       HT       0.417000       1.00800           0
     31473 TIP3     3055     TIP3     OH2      OT      -0.834000       15.9994           0
     31474 TIP3     3055     TIP3     H1       HT       0.417000       1.00800           0
     31475 TIP3     3055     TIP3     H2       HT       0.417000       1.00800           0
     31476 TIP3     3056     TIP3     OH2      OT      -0.834000       15.9994           0
     31477 TIP3     3056     TIP3     H1       HT       0.417000       1.00800           0
     31478 TIP3     3056     TIP3     H2       HT       0.417000       1.00800           0
     31479 TIP3     3057     TIP3     OH2      OT      -0.834000       15.9994           0
     31480 TIP3     3057     TIP3     H1       HT       0.417000       1.00800           0
     31481 TIP3     3057     TIP3     H2       HT       0.417000       1.00800           0
     31482 TIP3     3058     TIP3     OH2      OT      -0.834000       15.9994           0
     31483 TIP3     3058     TIP3     H1       HT       0.417000       1.00800           0
     31484 TIP3     3058     TIP3     H2       HT       0.417000       1.00800           0
     31485 TIP3     3059     TIP3     OH2      OT      -0.834000       15.9994           0
     31486 TIP3     3059     TIP3     H1       HT       0.417000       1.00800           0
     31487 TIP3     3059     TIP3     H2       HT       0.417000       1.00800           0
     31488 TIP3     3060     TIP3     OH2      OT      -0.834000       15.9994           0
     31489 TIP3     3060     TIP3     H1       HT       0.417000       1.00800           0
     31490 TIP3     3060     TIP3     H2       HT       0.417000       1.00800           0
     31491 TIP3     3061     TIP3     OH2      OT      -0.834000       15.9994           0
     31492 TIP3     3061     TIP3     H1       HT       0.417000       1.00800           0
     31493 TIP3     3061     TIP3     H2       HT       0.417000       1.00800           0
     31494 TIP3     3062     TIP3     OH2      OT      -0.834000       15.9994           0
     31495 TIP3     3062     TIP3     H1       HT       0.417000       1.00800           0
     31496 TIP3     3062     TIP3     H2       HT       0.417000       1.00800           0
     31497 TIP3     3063     TIP3     OH2      OT      -0.834000       15.9994           0
     31498 TIP3     3063     TIP3     H1       HT       0.417000       1.00800           0
     31499 TIP3     3063     TIP3     H2       HT       0.417000       1.00800           0
     31500 TIP3     3064     TIP3     OH2      OT      -0.834000       15.9994           0
     31501 TIP3     3064     TIP3     H1       HT       0.417000       1.00800           0
     31502 TIP3     3064     TIP3     H2       HT       0.417000       1.00800           0
     31503 TIP3     3065     TIP3     OH2      OT      -0.834000       15.9994           0
     31504 TIP3     3065     TIP3     H1       HT       0.417000       1.00800           0
     31505 TIP3     3065     TIP3     H2       HT       0.417000       1.00800           0
     31506 TIP3     3066     TIP3     OH2      OT      -0.834000       15.9994           0
     31507 TIP3     3066     TIP3     H1       HT       0.417000       1.00800           0
     31508 TIP3     3066     TIP3     H2       HT       0.417000       1.00800           0
     31509 TIP3     3067     TIP3     OH2      OT      -0.834000       15.9994           0
     31510 TIP3     3067     TIP3     H1       HT       0.417000       1.00800           0
     31511 TIP3     3067     TIP3     H2       HT       0.417000       1.00800           0
     31512 TIP3     3068     TIP3     OH2      OT      -0.834000       15.9994           0
     31513 TIP3     3068     TIP3     H1       HT       0.417000       1.00800           0
     31514 TIP3     3068     TIP3     H2       HT       0.417000       1.00800           0
     31515 TIP3     3069     TIP3     OH2      OT      -0.834000       15.9994           0
     31516 TIP3     3069     TIP3     H1       HT       0.417000       1.00800           0
     31517 TIP3     3069     TIP3     H2       HT       0.417000       1.00800           0
     31518 TIP3     3070     TIP3     OH2      OT      -0.834000       15.9994           0
     31519 TIP3     3070     TIP3     H1       HT       0.417000       1.00800           0
     31520 TIP3     3070     TIP3     H2       HT       0.417000       1.00800           0
     31521 TIP3     3071     TIP3     OH2      OT      -0.834000       15.9994           0
     31522 TIP3     3071     TIP3     H1       HT       0.417000       1.00800           0
     31523 TIP3     3071     TIP3     H2       HT       0.417000       1.00800           0
     31524 TIP3     3072     TIP3     OH2      OT      -0.834000       15.9994           0
     31525 TIP3     3072     TIP3     H1       HT       0.417000       1.00800           0
     31526 TIP3     3072     TIP3     H2       HT       0.417000       1.00800           0
     31527 TIP3     3073     TIP3     OH2      OT      -0.834000       15.9994           0
     31528 TIP3     3073     TIP3     H1       HT       0.417000       1.00800           0
     31529 TIP3     3073     TIP3     H2       HT       0.417000       1.00800           0
     31530 TIP3     3074     TIP3     OH2      OT      -0.834000       15.9994           0
     31531 TIP3     3074     TIP3     H1       HT       0.417000       1.00800           0
     31532 TIP3     3074     TIP3     H2       HT       0.417000       1.00800           0
     31533 TIP3     3075     TIP3     OH2      OT      -0.834000       15.9994           0
     31534 TIP3     3075     TIP3     H1       HT       0.417000       1.00800           0
     31535 TIP3     3075     TIP3     H2       HT       0.417000       1.00800           0
     31536 TIP3     3076     TIP3     OH2      OT      -0.834000       15.9994           0
     31537 TIP3     3076     TIP3     H1       HT       0.417000       1.00800           0
     31538 TIP3     3076     TIP3     H2       HT       0.417000       1.00800           0
     31539 TIP3     3077     TIP3     OH2      OT      -0.834000       15.9994           0
     31540 TIP3     3077     TIP3     H1       HT       0.417000       1.00800           0
     31541 TIP3     3077     TIP3     H2       HT       0.417000       1.00800           0
     31542 TIP3     3078     TIP3     OH2      OT      -0.834000       15.9994           0
     31543 TIP3     3078     TIP3     H1       HT       0.417000       1.00800           0
     31544 TIP3     3078     TIP3     H2       HT       0.417000       1.00800           0
     31545 TIP3     3079     TIP3     OH2      OT      -0.834000       15.9994           0
     31546 TIP3     3079     TIP3     H1       HT       0.417000       1.00800           0
     31547 TIP3     3079     TIP3     H2       HT       0.417000       1.00800           0
     31548 TIP3     3080     TIP3     OH2      OT      -0.834000       15.9994           0
     31549 TIP3     3080     TIP3     H1       HT       0.417000       1.00800           0
     31550 TIP3     3080     TIP3     H2       HT       0.417000       1.00800           0
     31551 TIP3     3081     TIP3     OH2      OT      -0.834000       15.9994           0
     31552 TIP3     3081     TIP3     H1       HT       0.417000       1.00800           0
     31553 TIP3     3081     TIP3     H2       HT       0.417000       1.00800           0
     31554 TIP3     3082     TIP3     OH2      OT      -0.834000       15.9994           0
     31555 TIP3     3082     TIP3     H1       HT       0.417000       1.00800           0
     31556 TIP3     3082     TIP3     H2       HT       0.417000       1.00800           0
     31557 TIP3     3083     TIP3     OH2      OT      -0.834000       15.9994           0
     31558 TIP3     3083     TIP3     H1       HT       0.417000       1.00800           0
     31559 TIP3     3083     TIP3     H2       HT       0.417000       1.00800           0
     31560 TIP3     3084     TIP3     OH2      OT      -0.834000       15.9994           0
     31561 TIP3     3084     TIP3     H1       HT       0.417000       1.00800           0
     31562 TIP3     3084     TIP3     H2       HT       0.417000       1.00800           0
     31563 TIP3     3085     TIP3     OH2      OT      -0.834000       15.9994           0
     31564 TIP3     3085     TIP3     H1       HT       0.417000       1.00800           0
     31565 TIP3     3085     TIP3     H2       HT       0.417000       1.00800           0
     31566 TIP3     3086     TIP3     OH2      OT      -0.834000       15.9994           0
     31567 TIP3     3086     TIP3     H1       HT       0.417000       1.00800           0
     31568 TIP3     3086     TIP3     H2       HT       0.417000       1.00800           0
     31569 TIP3     3087     TIP3     OH2      OT      -0.834000       15.9994           0
     31570 TIP3     3087     TIP3     H1       HT       0.417000       1.00800           0
     31571 TIP3     3087     TIP3     H2       HT       0.417000       1.00800           0
     31572 TIP3     3088     TIP3     OH2      OT      -0.834000       15.9994           0
     31573 TIP3     3088     TIP3     H1       HT       0.417000       1.00800           0
     31574 TIP3     3088     TIP3     H2       HT       0.417000       1.00800           0
     31575 TIP3     3089     TIP3     OH2      OT      -0.834000       15.9994           0
     31576 TIP3     3089     TIP3     H1       HT       0.417000       1.00800           0
     31577 TIP3     3089     TIP3     H2       HT       0.417000       1.00800           0
     31578 TIP3     3090     TIP3     OH2      OT      -0.834000       15.9994           0
     31579 TIP3     3090     TIP3     H1       HT       0.417000       1.00800           0
     31580 TIP3     3090     TIP3     H2       HT       0.417000       1.00800           0
     31581 TIP3     3091     TIP3     OH2      OT      -0.834000       15.9994           0
     31582 TIP3     3091     TIP3     H1       HT       0.417000       1.00800           0
     31583 TIP3     3091     TIP3     H2       HT       0.417000       1.00800           0
     31584 TIP3     3092     TIP3     OH2      OT      -0.834000       15.9994           0
     31585 TIP3     3092     TIP3     H1       HT       0.417000       1.00800           0
     31586 TIP3     3092     TIP3     H2       HT       0.417000       1.00800           0
     31587 TIP3     3093     TIP3     OH2      OT      -0.834000       15.9994           0
     31588 TIP3     3093     TIP3     H1       HT       0.417000       1.00800           0
     31589 TIP3     3093     TIP3     H2       HT       0.417000       1.00800           0
     31590 TIP3     3094     TIP3     OH2      OT      -0.834000       15.9994           0
     31591 TIP3     3094     TIP3     H1       HT       0.417000       1.00800           0
     31592 TIP3     3094     TIP3     H2       HT       0.417000       1.00800           0
     31593 TIP3     3095     TIP3     OH2      OT      -0.834000       15.9994           0
     31594 TIP3     3095     TIP3     H1       HT       0.417000       1.00800           0
     31595 TIP3     3095     TIP3     H2       HT       0.417000       1.00800           0
     31596 TIP3     3096     TIP3     OH2      OT      -0.834000       15.9994           0
     31597 TIP3     3096     TIP3     H1       HT       0.417000       1.00800           0
     31598 TIP3     3096     TIP3     H2       HT       0.417000       1.00800           0
     31599 TIP3     3097     TIP3     OH2      OT      -0.834000       15.9994           0
     31600 TIP3     3097     TIP3     H1       HT       0.417000       1.00800           0
     31601 TIP3     3097     TIP3     H2       HT       0.417000       1.00800           0
     31602 TIP3     3098     TIP3     OH2      OT      -0.834000       15.9994           0
     31603 TIP3     3098     TIP3     H1       HT       0.417000       1.00800           0
     31604 TIP3     3098     TIP3     H2       HT       0.417000       1.00800           0
     31605 TIP3     3099     TIP3     OH2      OT      -0.834000       15.9994           0
     31606 TIP3     3099     TIP3     H1       HT       0.417000       1.00800           0
     31607 TIP3     3099     TIP3     H2       HT       0.417000       1.00800           0
     31608 TIP3     3100     TIP3     OH2      OT      -0.834000       15.9994           0
     31609 TIP3     3100     TIP3     H1       HT       0.417000       1.00800           0
     31610 TIP3     3100     TIP3     H2       HT       0.417000       1.00800           0
     31611 TIP3     3101     TIP3     OH2      OT      -0.834000       15.9994           0
     31612 TIP3     3101     TIP3     H1       HT       0.417000       1.00800           0
     31613 TIP3     3101     TIP3     H2       HT       0.417000       1.00800           0
     31614 TIP3     3102     TIP3     OH2      OT      -0.834000       15.9994           0
     31615 TIP3     3102     TIP3     H1       HT       0.417000       1.00800           0
     31616 TIP3     3102     TIP3     H2       HT       0.417000       1.00800           0
     31617 TIP3     3103     TIP3     OH2      OT      -0.834000       15.9994           0
     31618 TIP3     3103     TIP3     H1       HT       0.417000       1.00800           0
     31619 TIP3     3103     TIP3     H2       HT       0.417000       1.00800           0
     31620 TIP3     3104     TIP3     OH2      OT      -0.834000       15.9994           0
     31621 TIP3     3104     TIP3     H1       HT       0.417000       1.00800           0
     31622 TIP3     3104     TIP3     H2       HT       0.417000       1.00800           0
     31623 TIP3     3105     TIP3     OH2      OT      -0.834000       15.9994           0
     31624 TIP3     3105     TIP3     H1       HT       0.417000       1.00800           0
     31625 TIP3     3105     TIP3     H2       HT       0.417000       1.00800           0
     31626 TIP3     3106     TIP3     OH2      OT      -0.834000       15.9994           0
     31627 TIP3     3106     TIP3     H1       HT       0.417000       1.00800           0
     31628 TIP3     3106     TIP3     H2       HT       0.417000       1.00800           0
     31629 TIP3     3107     TIP3     OH2      OT      -0.834000       15.9994           0
     31630 TIP3     3107     TIP3     H1       HT       0.417000       1.00800           0
     31631 TIP3     3107     TIP3     H2       HT       0.417000       1.00800           0
     31632 TIP3     3108     TIP3     OH2      OT      -0.834000       15.9994           0
     31633 TIP3     3108     TIP3     H1       HT       0.417000       1.00800           0
     31634 TIP3     3108     TIP3     H2       HT       0.417000       1.00800           0
     31635 TIP3     3109     TIP3     OH2      OT      -0.834000       15.9994           0
     31636 TIP3     3109     TIP3     H1       HT       0.417000       1.00800           0
     31637 TIP3     3109     TIP3     H2       HT       0.417000       1.00800           0
     31638 TIP3     3110     TIP3     OH2      OT      -0.834000       15.9994           0
     31639 TIP3     3110     TIP3     H1       HT       0.417000       1.00800           0
     31640 TIP3     3110     TIP3     H2       HT       0.417000       1.00800           0
     31641 TIP3     3111     TIP3     OH2      OT      -0.834000       15.9994           0
     31642 TIP3     3111     TIP3     H1       HT       0.417000       1.00800           0
     31643 TIP3     3111     TIP3     H2       HT       0.417000       1.00800           0
     31644 TIP3     3112     TIP3     OH2      OT      -0.834000       15.9994           0
     31645 TIP3     3112     TIP3     H1       HT       0.417000       1.00800           0
     31646 TIP3     3112     TIP3     H2       HT       0.417000       1.00800           0
     31647 TIP3     3113     TIP3     OH2      OT      -0.834000       15.9994           0
     31648 TIP3     3113     TIP3     H1       HT       0.417000       1.00800           0
     31649 TIP3     3113     TIP3     H2       HT       0.417000       1.00800           0
     31650 TIP3     3114     TIP3     OH2      OT      -0.834000       15.9994           0
     31651 TIP3     3114     TIP3     H1       HT       0.417000       1.00800           0
     31652 TIP3     3114     TIP3     H2       HT       0.417000       1.00800           0
     31653 TIP3     3115     TIP3     OH2      OT      -0.834000       15.9994           0
     31654 TIP3     3115     TIP3     H1       HT       0.417000       1.00800           0
     31655 TIP3     3115     TIP3     H2       HT       0.417000       1.00800           0
     31656 TIP3     3116     TIP3     OH2      OT      -0.834000       15.9994           0
     31657 TIP3     3116     TIP3     H1       HT       0.417000       1.00800           0
     31658 TIP3     3116     TIP3     H2       HT       0.417000       1.00800           0
     31659 TIP3     3117     TIP3     OH2      OT      -0.834000       15.9994           0
     31660 TIP3     3117     TIP3     H1       HT       0.417000       1.00800           0
     31661 TIP3     3117     TIP3     H2       HT       0.417000       1.00800           0
     31662 TIP3     3118     TIP3     OH2      OT      -0.834000       15.9994           0
     31663 TIP3     3118     TIP3     H1       HT       0.417000       1.00800           0
     31664 TIP3     3118     TIP3     H2       HT       0.417000       1.00800           0
     31665 TIP3     3119     TIP3     OH2      OT      -0.834000       15.9994           0
     31666 TIP3     3119     TIP3     H1       HT       0.417000       1.00800           0
     31667 TIP3     3119     TIP3     H2       HT       0.417000       1.00800           0
     31668 TIP3     3120     TIP3     OH2      OT      -0.834000       15.9994           0
     31669 TIP3     3120     TIP3     H1       HT       0.417000       1.00800           0
     31670 TIP3     3120     TIP3     H2       HT       0.417000       1.00800           0
     31671 TIP3     3121     TIP3     OH2      OT      -0.834000       15.9994           0
     31672 TIP3     3121     TIP3     H1       HT       0.417000       1.00800           0
     31673 TIP3     3121     TIP3     H2       HT       0.417000       1.00800           0
     31674 TIP3     3122     TIP3     OH2      OT      -0.834000       15.9994           0
     31675 TIP3     3122     TIP3     H1       HT       0.417000       1.00800           0
     31676 TIP3     3122     TIP3     H2       HT       0.417000       1.00800           0
     31677 TIP3     3123     TIP3     OH2      OT      -0.834000       15.9994           0
     31678 TIP3     3123     TIP3     H1       HT       0.417000       1.00800           0
     31679 TIP3     3123     TIP3     H2       HT       0.417000       1.00800           0
     31680 TIP3     3124     TIP3     OH2      OT      -0.834000       15.9994           0
     31681 TIP3     3124     TIP3     H1       HT       0.417000       1.00800           0
     31682 TIP3     3124     TIP3     H2       HT       0.417000       1.00800           0
     31683 TIP3     3125     TIP3     OH2      OT      -0.834000       15.9994           0
     31684 TIP3     3125     TIP3     H1       HT       0.417000       1.00800           0
     31685 TIP3     3125     TIP3     H2       HT       0.417000       1.00800           0
     31686 TIP3     3126     TIP3     OH2      OT      -0.834000       15.9994           0
     31687 TIP3     3126     TIP3     H1       HT       0.417000       1.00800           0
     31688 TIP3     3126     TIP3     H2       HT       0.417000       1.00800           0
     31689 TIP3     3127     TIP3     OH2      OT      -0.834000       15.9994           0
     31690 TIP3     3127     TIP3     H1       HT       0.417000       1.00800           0
     31691 TIP3     3127     TIP3     H2       HT       0.417000       1.00800           0
     31692 TIP3     3128     TIP3     OH2      OT      -0.834000       15.9994           0
     31693 TIP3     3128     TIP3     H1       HT       0.417000       1.00800           0
     31694 TIP3     3128     TIP3     H2       HT       0.417000       1.00800           0
     31695 TIP3     3129     TIP3     OH2      OT      -0.834000       15.9994           0
     31696 TIP3     3129     TIP3     H1       HT       0.417000       1.00800           0
     31697 TIP3     3129     TIP3     H2       HT       0.417000       1.00800           0
     31698 TIP3     3130     TIP3     OH2      OT      -0.834000       15.9994           0
     31699 TIP3     3130     TIP3     H1       HT       0.417000       1.00800           0
     31700 TIP3     3130     TIP3     H2       HT       0.417000       1.00800           0
     31701 TIP3     3131     TIP3     OH2      OT      -0.834000       15.9994           0
     31702 TIP3     3131     TIP3     H1       HT       0.417000       1.00800           0
     31703 TIP3     3131     TIP3     H2       HT       0.417000       1.00800           0
     31704 TIP3     3132     TIP3     OH2      OT      -0.834000       15.9994           0
     31705 TIP3     3132     TIP3     H1       HT       0.417000       1.00800           0
     31706 TIP3     3132     TIP3     H2       HT       0.417000       1.00800           0
     31707 TIP3     3133     TIP3     OH2      OT      -0.834000       15.9994           0
     31708 TIP3     3133     TIP3     H1       HT       0.417000       1.00800           0
     31709 TIP3     3133     TIP3     H2       HT       0.417000       1.00800           0
     31710 TIP3     3134     TIP3     OH2      OT      -0.834000       15.9994           0
     31711 TIP3     3134     TIP3     H1       HT       0.417000       1.00800           0
     31712 TIP3     3134     TIP3     H2       HT       0.417000       1.00800           0
     31713 TIP3     3135     TIP3     OH2      OT      -0.834000       15.9994           0
     31714 TIP3     3135     TIP3     H1       HT       0.417000       1.00800           0
     31715 TIP3     3135     TIP3     H2       HT       0.417000       1.00800           0
     31716 TIP3     3136     TIP3     OH2      OT      -0.834000       15.9994           0
     31717 TIP3     3136     TIP3     H1       HT       0.417000       1.00800           0
     31718 TIP3     3136     TIP3     H2       HT       0.417000       1.00800           0
     31719 TIP3     3137     TIP3     OH2      OT      -0.834000       15.9994           0
     31720 TIP3     3137     TIP3     H1       HT       0.417000       1.00800           0
     31721 TIP3     3137     TIP3     H2       HT       0.417000       1.00800           0
     31722 TIP3     3138     TIP3     OH2      OT      -0.834000       15.9994           0
     31723 TIP3     3138     TIP3     H1       HT       0.417000       1.00800           0
     31724 TIP3     3138     TIP3     H2       HT       0.417000       1.00800           0
     31725 TIP3     3139     TIP3     OH2      OT      -0.834000       15.9994           0
     31726 TIP3     3139     TIP3     H1       HT       0.417000       1.00800           0
     31727 TIP3     3139     TIP3     H2       HT       0.417000       1.00800           0
     31728 TIP3     3140     TIP3     OH2      OT      -0.834000       15.9994           0
     31729 TIP3     3140     TIP3     H1       HT       0.417000       1.00800           0
     31730 TIP3     3140     TIP3     H2       HT       0.417000       1.00800           0
     31731 TIP3     3141     TIP3     OH2      OT      -0.834000       15.9994           0
     31732 TIP3     3141     TIP3     H1       HT       0.417000       1.00800           0
     31733 TIP3     3141     TIP3     H2       HT       0.417000       1.00800           0
     31734 TIP3     3142     TIP3     OH2      OT      -0.834000       15.9994           0
     31735 TIP3     3142     TIP3     H1       HT       0.417000       1.00800           0
     31736 TIP3     3142     TIP3     H2       HT       0.417000       1.00800           0
     31737 TIP3     3143     TIP3     OH2      OT      -0.834000       15.9994           0
     31738 TIP3     3143     TIP3     H1       HT       0.417000       1.00800           0
     31739 TIP3     3143     TIP3     H2       HT       0.417000       1.00800           0
     31740 TIP3     3144     TIP3     OH2      OT      -0.834000       15.9994           0
     31741 TIP3     3144     TIP3     H1       HT       0.417000       1.00800           0
     31742 TIP3     3144     TIP3     H2       HT       0.417000       1.00800           0
     31743 TIP3     3145     TIP3     OH2      OT      -0.834000       15.9994           0
     31744 TIP3     3145     TIP3     H1       HT       0.417000       1.00800           0
     31745 TIP3     3145     TIP3     H2       HT       0.417000       1.00800           0
     31746 TIP3     3146     TIP3     OH2      OT      -0.834000       15.9994           0
     31747 TIP3     3146     TIP3     H1       HT       0.417000       1.00800           0
     31748 TIP3     3146     TIP3     H2       HT       0.417000       1.00800           0
     31749 TIP3     3147     TIP3     OH2      OT      -0.834000       15.9994           0
     31750 TIP3     3147     TIP3     H1       HT       0.417000       1.00800           0
     31751 TIP3     3147     TIP3     H2       HT       0.417000       1.00800           0
     31752 TIP3     3148     TIP3     OH2      OT      -0.834000       15.9994           0
     31753 TIP3     3148     TIP3     H1       HT       0.417000       1.00800           0
     31754 TIP3     3148     TIP3     H2       HT       0.417000       1.00800           0
     31755 TIP3     3149     TIP3     OH2      OT      -0.834000       15.9994           0
     31756 TIP3     3149     TIP3     H1       HT       0.417000       1.00800           0
     31757 TIP3     3149     TIP3     H2       HT       0.417000       1.00800           0
     31758 TIP3     3150     TIP3     OH2      OT      -0.834000       15.9994           0
     31759 TIP3     3150     TIP3     H1       HT       0.417000       1.00800           0
     31760 TIP3     3150     TIP3     H2       HT       0.417000       1.00800           0
     31761 TIP3     3151     TIP3     OH2      OT      -0.834000       15.9994           0
     31762 TIP3     3151     TIP3     H1       HT       0.417000       1.00800           0
     31763 TIP3     3151     TIP3     H2       HT       0.417000       1.00800           0
     31764 TIP3     3152     TIP3     OH2      OT      -0.834000       15.9994           0
     31765 TIP3     3152     TIP3     H1       HT       0.417000       1.00800           0
     31766 TIP3     3152     TIP3     H2       HT       0.417000       1.00800           0
     31767 TIP3     3153     TIP3     OH2      OT      -0.834000       15.9994           0
     31768 TIP3     3153     TIP3     H1       HT       0.417000       1.00800           0
     31769 TIP3     3153     TIP3     H2       HT       0.417000       1.00800           0
     31770 TIP3     3154     TIP3     OH2      OT      -0.834000       15.9994           0
     31771 TIP3     3154     TIP3     H1       HT       0.417000       1.00800           0
     31772 TIP3     3154     TIP3     H2       HT       0.417000       1.00800           0
     31773 TIP3     3155     TIP3     OH2      OT      -0.834000       15.9994           0
     31774 TIP3     3155     TIP3     H1       HT       0.417000       1.00800           0
     31775 TIP3     3155     TIP3     H2       HT       0.417000       1.00800           0
     31776 TIP3     3156     TIP3     OH2      OT      -0.834000       15.9994           0
     31777 TIP3     3156     TIP3     H1       HT       0.417000       1.00800           0
     31778 TIP3     3156     TIP3     H2       HT       0.417000       1.00800           0
     31779 TIP3     3157     TIP3     OH2      OT      -0.834000       15.9994           0
     31780 TIP3     3157     TIP3     H1       HT       0.417000       1.00800           0
     31781 TIP3     3157     TIP3     H2       HT       0.417000       1.00800           0
     31782 TIP3     3158     TIP3     OH2      OT      -0.834000       15.9994           0
     31783 TIP3     3158     TIP3     H1       HT       0.417000       1.00800           0
     31784 TIP3     3158     TIP3     H2       HT       0.417000       1.00800           0
     31785 TIP3     3159     TIP3     OH2      OT      -0.834000       15.9994           0
     31786 TIP3     3159     TIP3     H1       HT       0.417000       1.00800           0
     31787 TIP3     3159     TIP3     H2       HT       0.417000       1.00800           0
     31788 TIP3     3160     TIP3     OH2      OT      -0.834000       15.9994           0
     31789 TIP3     3160     TIP3     H1       HT       0.417000       1.00800           0
     31790 TIP3     3160     TIP3     H2       HT       0.417000       1.00800           0
     31791 TIP3     3161     TIP3     OH2      OT      -0.834000       15.9994           0
     31792 TIP3     3161     TIP3     H1       HT       0.417000       1.00800           0
     31793 TIP3     3161     TIP3     H2       HT       0.417000       1.00800           0
     31794 TIP3     3162     TIP3     OH2      OT      -0.834000       15.9994           0
     31795 TIP3     3162     TIP3     H1       HT       0.417000       1.00800           0
     31796 TIP3     3162     TIP3     H2       HT       0.417000       1.00800           0
     31797 TIP3     3163     TIP3     OH2      OT      -0.834000       15.9994           0
     31798 TIP3     3163     TIP3     H1       HT       0.417000       1.00800           0
     31799 TIP3     3163     TIP3     H2       HT       0.417000       1.00800           0
     31800 TIP3     3164     TIP3     OH2      OT      -0.834000       15.9994           0
     31801 TIP3     3164     TIP3     H1       HT       0.417000       1.00800           0
     31802 TIP3     3164     TIP3     H2       HT       0.417000       1.00800           0
     31803 TIP3     3165     TIP3     OH2      OT      -0.834000       15.9994           0
     31804 TIP3     3165     TIP3     H1       HT       0.417000       1.00800           0
     31805 TIP3     3165     TIP3     H2       HT       0.417000       1.00800           0
     31806 TIP3     3166     TIP3     OH2      OT      -0.834000       15.9994           0
     31807 TIP3     3166     TIP3     H1       HT       0.417000       1.00800           0
     31808 TIP3     3166     TIP3     H2       HT       0.417000       1.00800           0
     31809 TIP3     3167     TIP3     OH2      OT      -0.834000       15.9994           0
     31810 TIP3     3167     TIP3     H1       HT       0.417000       1.00800           0
     31811 TIP3     3167     TIP3     H2       HT       0.417000       1.00800           0
     31812 TIP3     3168     TIP3     OH2      OT      -0.834000       15.9994           0
     31813 TIP3     3168     TIP3     H1       HT       0.417000       1.00800           0
     31814 TIP3     3168     TIP3     H2       HT       0.417000       1.00800           0
     31815 TIP3     3169     TIP3     OH2      OT      -0.834000       15.9994           0
     31816 TIP3     3169     TIP3     H1       HT       0.417000       1.00800           0
     31817 TIP3     3169     TIP3     H2       HT       0.417000       1.00800           0
     31818 TIP3     3170     TIP3     OH2      OT      -0.834000       15.9994           0
     31819 TIP3     3170     TIP3     H1       HT       0.417000       1.00800           0
     31820 TIP3     3170     TIP3     H2       HT       0.417000       1.00800           0
     31821 TIP3     3171     TIP3     OH2      OT      -0.834000       15.9994           0
     31822 TIP3     3171     TIP3     H1       HT       0.417000       1.00800           0
     31823 TIP3     3171     TIP3     H2       HT       0.417000       1.00800           0
     31824 TIP3     3172     TIP3     OH2      OT      -0.834000       15.9994           0
     31825 TIP3     3172     TIP3     H1       HT       0.417000       1.00800           0
     31826 TIP3     3172     TIP3     H2       HT       0.417000       1.00800           0
     31827 TIP3     3173     TIP3     OH2      OT      -0.834000       15.9994           0
     31828 TIP3     3173     TIP3     H1       HT       0.417000       1.00800           0
     31829 TIP3     3173     TIP3     H2       HT       0.417000       1.00800           0
     31830 TIP3     3174     TIP3     OH2      OT      -0.834000       15.9994           0
     31831 TIP3     3174     TIP3     H1       HT       0.417000       1.00800           0
     31832 TIP3     3174     TIP3     H2       HT       0.417000       1.00800           0
     31833 TIP3     3175     TIP3     OH2      OT      -0.834000       15.9994           0
     31834 TIP3     3175     TIP3     H1       HT       0.417000       1.00800           0
     31835 TIP3     3175     TIP3     H2       HT       0.417000       1.00800           0
     31836 TIP3     3176     TIP3     OH2      OT      -0.834000       15.9994           0
     31837 TIP3     3176     TIP3     H1       HT       0.417000       1.00800           0
     31838 TIP3     3176     TIP3     H2       HT       0.417000       1.00800           0
     31839 TIP3     3177     TIP3     OH2      OT      -0.834000       15.9994           0
     31840 TIP3     3177     TIP3     H1       HT       0.417000       1.00800           0
     31841 TIP3     3177     TIP3     H2       HT       0.417000       1.00800           0
     31842 TIP3     3178     TIP3     OH2      OT      -0.834000       15.9994           0
     31843 TIP3     3178     TIP3     H1       HT       0.417000       1.00800           0
     31844 TIP3     3178     TIP3     H2       HT       0.417000       1.00800           0
     31845 TIP3     3179     TIP3     OH2      OT      -0.834000       15.9994           0
     31846 TIP3     3179     TIP3     H1       HT       0.417000       1.00800           0
     31847 TIP3     3179     TIP3     H2       HT       0.417000       1.00800           0
     31848 TIP3     3180     TIP3     OH2      OT      -0.834000       15.9994           0
     31849 TIP3     3180     TIP3     H1       HT       0.417000       1.00800           0
     31850 TIP3     3180     TIP3     H2       HT       0.417000       1.00800           0
     31851 TIP3     3181     TIP3     OH2      OT      -0.834000       15.9994           0
     31852 TIP3     3181     TIP3     H1       HT       0.417000       1.00800           0
     31853 TIP3     3181     TIP3     H2       HT       0.417000       1.00800           0
     31854 TIP3     3182     TIP3     OH2      OT      -0.834000       15.9994           0
     31855 TIP3     3182     TIP3     H1       HT       0.417000       1.00800           0
     31856 TIP3     3182     TIP3     H2       HT       0.417000       1.00800           0
     31857 TIP3     3183     TIP3     OH2      OT      -0.834000       15.9994           0
     31858 TIP3     3183     TIP3     H1       HT       0.417000       1.00800           0
     31859 TIP3     3183     TIP3     H2       HT       0.417000       1.00800           0
     31860 TIP3     3184     TIP3     OH2      OT      -0.834000       15.9994           0
     31861 TIP3     3184     TIP3     H1       HT       0.417000       1.00800           0
     31862 TIP3     3184     TIP3     H2       HT       0.417000       1.00800           0
     31863 TIP3     3185     TIP3     OH2      OT      -0.834000       15.9994           0
     31864 TIP3     3185     TIP3     H1       HT       0.417000       1.00800           0
     31865 TIP3     3185     TIP3     H2       HT       0.417000       1.00800           0
     31866 TIP3     3186     TIP3     OH2      OT      -0.834000       15.9994           0
     31867 TIP3     3186     TIP3     H1       HT       0.417000       1.00800           0
     31868 TIP3     3186     TIP3     H2       HT       0.417000       1.00800           0
     31869 TIP3     3187     TIP3     OH2      OT      -0.834000       15.9994           0
     31870 TIP3     3187     TIP3     H1       HT       0.417000       1.00800           0
     31871 TIP3     3187     TIP3     H2       HT       0.417000       1.00800           0
     31872 TIP3     3188     TIP3     OH2      OT      -0.834000       15.9994           0
     31873 TIP3     3188     TIP3     H1       HT       0.417000       1.00800           0
     31874 TIP3     3188     TIP3     H2       HT       0.417000       1.00800           0
     31875 TIP3     3189     TIP3     OH2      OT      -0.834000       15.9994           0
     31876 TIP3     3189     TIP3     H1       HT       0.417000       1.00800           0
     31877 TIP3     3189     TIP3     H2       HT       0.417000       1.00800           0
     31878 TIP3     3190     TIP3     OH2      OT      -0.834000       15.9994           0
     31879 TIP3     3190     TIP3     H1       HT       0.417000       1.00800           0
     31880 TIP3     3190     TIP3     H2       HT       0.417000       1.00800           0
     31881 TIP3     3191     TIP3     OH2      OT      -0.834000       15.9994           0
     31882 TIP3     3191     TIP3     H1       HT       0.417000       1.00800           0
     31883 TIP3     3191     TIP3     H2       HT       0.417000       1.00800           0
     31884 TIP3     3192     TIP3     OH2      OT      -0.834000       15.9994           0
     31885 TIP3     3192     TIP3     H1       HT       0.417000       1.00800           0
     31886 TIP3     3192     TIP3     H2       HT       0.417000       1.00800           0
     31887 TIP3     3193     TIP3     OH2      OT      -0.834000       15.9994           0
     31888 TIP3     3193     TIP3     H1       HT       0.417000       1.00800           0
     31889 TIP3     3193     TIP3     H2       HT       0.417000       1.00800           0
     31890 TIP3     3194     TIP3     OH2      OT      -0.834000       15.9994           0
     31891 TIP3     3194     TIP3     H1       HT       0.417000       1.00800           0
     31892 TIP3     3194     TIP3     H2       HT       0.417000       1.00800           0
     31893 TIP3     3195     TIP3     OH2      OT      -0.834000       15.9994           0
     31894 TIP3     3195     TIP3     H1       HT       0.417000       1.00800           0
     31895 TIP3     3195     TIP3     H2       HT       0.417000       1.00800           0
     31896 TIP3     3196     TIP3     OH2      OT      -0.834000       15.9994           0
     31897 TIP3     3196     TIP3     H1       HT       0.417000       1.00800           0
     31898 TIP3     3196     TIP3     H2       HT       0.417000       1.00800           0
     31899 TIP3     3197     TIP3     OH2      OT      -0.834000       15.9994           0
     31900 TIP3     3197     TIP3     H1       HT       0.417000       1.00800           0
     31901 TIP3     3197     TIP3     H2       HT       0.417000       1.00800           0
     31902 TIP3     3198     TIP3     OH2      OT      -0.834000       15.9994           0
     31903 TIP3     3198     TIP3     H1       HT       0.417000       1.00800           0
     31904 TIP3     3198     TIP3     H2       HT       0.417000       1.00800           0
     31905 TIP3     3199     TIP3     OH2      OT      -0.834000       15.9994           0
     31906 TIP3     3199     TIP3     H1       HT       0.417000       1.00800           0
     31907 TIP3     3199     TIP3     H2       HT       0.417000       1.00800           0
     31908 TIP3     3200     TIP3     OH2      OT      -0.834000       15.9994           0
     31909 TIP3     3200     TIP3     H1       HT       0.417000       1.00800           0
     31910 TIP3     3200     TIP3     H2       HT       0.417000       1.00800           0
     31911 TIP3     3201     TIP3     OH2      OT      -0.834000       15.9994           0
     31912 TIP3     3201     TIP3     H1       HT       0.417000       1.00800           0
     31913 TIP3     3201     TIP3     H2       HT       0.417000       1.00800           0
     31914 TIP3     3202     TIP3     OH2      OT      -0.834000       15.9994           0
     31915 TIP3     3202     TIP3     H1       HT       0.417000       1.00800           0
     31916 TIP3     3202     TIP3     H2       HT       0.417000       1.00800           0
     31917 TIP3     3203     TIP3     OH2      OT      -0.834000       15.9994           0
     31918 TIP3     3203     TIP3     H1       HT       0.417000       1.00800           0
     31919 TIP3     3203     TIP3     H2       HT       0.417000       1.00800           0
     31920 TIP3     3204     TIP3     OH2      OT      -0.834000       15.9994           0
     31921 TIP3     3204     TIP3     H1       HT       0.417000       1.00800           0
     31922 TIP3     3204     TIP3     H2       HT       0.417000       1.00800           0
     31923 TIP3     3205     TIP3     OH2      OT      -0.834000       15.9994           0
     31924 TIP3     3205     TIP3     H1       HT       0.417000       1.00800           0
     31925 TIP3     3205     TIP3     H2       HT       0.417000       1.00800           0
     31926 TIP3     3206     TIP3     OH2      OT      -0.834000       15.9994           0
     31927 TIP3     3206     TIP3     H1       HT       0.417000       1.00800           0
     31928 TIP3     3206     TIP3     H2       HT       0.417000       1.00800           0
     31929 TIP3     3207     TIP3     OH2      OT      -0.834000       15.9994           0
     31930 TIP3     3207     TIP3     H1       HT       0.417000       1.00800           0
     31931 TIP3     3207     TIP3     H2       HT       0.417000       1.00800           0
     31932 TIP3     3208     TIP3     OH2      OT      -0.834000       15.9994           0
     31933 TIP3     3208     TIP3     H1       HT       0.417000       1.00800           0
     31934 TIP3     3208     TIP3     H2       HT       0.417000       1.00800           0
     31935 TIP3     3209     TIP3     OH2      OT      -0.834000       15.9994           0
     31936 TIP3     3209     TIP3     H1       HT       0.417000       1.00800           0
     31937 TIP3     3209     TIP3     H2       HT       0.417000       1.00800           0
     31938 TIP3     3210     TIP3     OH2      OT      -0.834000       15.9994           0
     31939 TIP3     3210     TIP3     H1       HT       0.417000       1.00800           0
     31940 TIP3     3210     TIP3     H2       HT       0.417000       1.00800           0
     31941 TIP3     3211     TIP3     OH2      OT      -0.834000       15.9994           0
     31942 TIP3     3211     TIP3     H1       HT       0.417000       1.00800           0
     31943 TIP3     3211     TIP3     H2       HT       0.417000       1.00800           0
     31944 TIP3     3212     TIP3     OH2      OT      -0.834000       15.9994           0
     31945 TIP3     3212     TIP3     H1       HT       0.417000       1.00800           0
     31946 TIP3     3212     TIP3     H2       HT       0.417000       1.00800           0
     31947 TIP3     3213     TIP3     OH2      OT      -0.834000       15.9994           0
     31948 TIP3     3213     TIP3     H1       HT       0.417000       1.00800           0
     31949 TIP3     3213     TIP3     H2       HT       0.417000       1.00800           0
     31950 TIP3     3214     TIP3     OH2      OT      -0.834000       15.9994           0
     31951 TIP3     3214     TIP3     H1       HT       0.417000       1.00800           0
     31952 TIP3     3214     TIP3     H2       HT       0.417000       1.00800           0
     31953 TIP3     3215     TIP3     OH2      OT      -0.834000       15.9994           0
     31954 TIP3     3215     TIP3     H1       HT       0.417000       1.00800           0
     31955 TIP3     3215     TIP3     H2       HT       0.417000       1.00800           0
     31956 TIP3     3216     TIP3     OH2      OT      -0.834000       15.9994           0
     31957 TIP3     3216     TIP3     H1       HT       0.417000       1.00800           0
     31958 TIP3     3216     TIP3     H2       HT       0.417000       1.00800           0
     31959 TIP3     3217     TIP3     OH2      OT      -0.834000       15.9994           0
     31960 TIP3     3217     TIP3     H1       HT       0.417000       1.00800           0
     31961 TIP3     3217     TIP3     H2       HT       0.417000       1.00800           0
     31962 TIP3     3218     TIP3     OH2      OT      -0.834000       15.9994           0
     31963 TIP3     3218     TIP3     H1       HT       0.417000       1.00800           0
     31964 TIP3     3218     TIP3     H2       HT       0.417000       1.00800           0
     31965 TIP3     3219     TIP3     OH2      OT      -0.834000       15.9994           0
     31966 TIP3     3219     TIP3     H1       HT       0.417000       1.00800           0
     31967 TIP3     3219     TIP3     H2       HT       0.417000       1.00800           0
     31968 TIP3     3220     TIP3     OH2      OT      -0.834000       15.9994           0
     31969 TIP3     3220     TIP3     H1       HT       0.417000       1.00800           0
     31970 TIP3     3220     TIP3     H2       HT       0.417000       1.00800           0
     31971 TIP3     3221     TIP3     OH2      OT      -0.834000       15.9994           0
     31972 TIP3     3221     TIP3     H1       HT       0.417000       1.00800           0
     31973 TIP3     3221     TIP3     H2       HT       0.417000       1.00800           0
     31974 TIP3     3222     TIP3     OH2      OT      -0.834000       15.9994           0
     31975 TIP3     3222     TIP3     H1       HT       0.417000       1.00800           0
     31976 TIP3     3222     TIP3     H2       HT       0.417000       1.00800           0
     31977 TIP3     3223     TIP3     OH2      OT      -0.834000       15.9994           0
     31978 TIP3     3223     TIP3     H1       HT       0.417000       1.00800           0
     31979 TIP3     3223     TIP3     H2       HT       0.417000       1.00800           0
     31980 TIP3     3224     TIP3     OH2      OT      -0.834000       15.9994           0
     31981 TIP3     3224     TIP3     H1       HT       0.417000       1.00800           0
     31982 TIP3     3224     TIP3     H2       HT       0.417000       1.00800           0
     31983 TIP3     3225     TIP3     OH2      OT      -0.834000       15.9994           0
     31984 TIP3     3225     TIP3     H1       HT       0.417000       1.00800           0
     31985 TIP3     3225     TIP3     H2       HT       0.417000       1.00800           0
     31986 TIP3     3226     TIP3     OH2      OT      -0.834000       15.9994           0
     31987 TIP3     3226     TIP3     H1       HT       0.417000       1.00800           0
     31988 TIP3     3226     TIP3     H2       HT       0.417000       1.00800           0
     31989 TIP3     3227     TIP3     OH2      OT      -0.834000       15.9994           0
     31990 TIP3     3227     TIP3     H1       HT       0.417000       1.00800           0
     31991 TIP3     3227     TIP3     H2       HT       0.417000       1.00800           0
     31992 TIP3     3228     TIP3     OH2      OT      -0.834000       15.9994           0
     31993 TIP3     3228     TIP3     H1       HT       0.417000       1.00800           0
     31994 TIP3     3228     TIP3     H2       HT       0.417000       1.00800           0
     31995 TIP3     3229     TIP3     OH2      OT      -0.834000       15.9994           0
     31996 TIP3     3229     TIP3     H1       HT       0.417000       1.00800           0
     31997 TIP3     3229     TIP3     H2       HT       0.417000       1.00800           0
     31998 TIP3     3230     TIP3     OH2      OT      -0.834000       15.9994           0
     31999 TIP3     3230     TIP3     H1       HT       0.417000       1.00800           0
     32000 TIP3     3230     TIP3     H2       HT       0.417000       1.00800           0
     32001 TIP3     3231     TIP3     OH2      OT      -0.834000       15.9994           0
     32002 TIP3     3231     TIP3     H1       HT       0.417000       1.00800           0
     32003 TIP3     3231     TIP3     H2       HT       0.417000       1.00800           0
     32004 TIP3     3232     TIP3     OH2      OT      -0.834000       15.9994           0
     32005 TIP3     3232     TIP3     H1       HT       0.417000       1.00800           0
     32006 TIP3     3232     TIP3     H2       HT       0.417000       1.00800           0
     32007 TIP3     3233     TIP3     OH2      OT      -0.834000       15.9994           0
     32008 TIP3     3233     TIP3     H1       HT       0.417000       1.00800           0
     32009 TIP3     3233     TIP3     H2       HT       0.417000       1.00800           0
     32010 TIP3     3234     TIP3     OH2      OT      -0.834000       15.9994           0
     32011 TIP3     3234     TIP3     H1       HT       0.417000       1.00800           0
     32012 TIP3     3234     TIP3     H2       HT       0.417000       1.00800           0
     32013 TIP3     3235     TIP3     OH2      OT      -0.834000       15.9994           0
     32014 TIP3     3235     TIP3     H1       HT       0.417000       1.00800           0
     32015 TIP3     3235     TIP3     H2       HT       0.417000       1.00800           0
     32016 TIP3     3236     TIP3     OH2      OT      -0.834000       15.9994           0
     32017 TIP3     3236     TIP3     H1       HT       0.417000       1.00800           0
     32018 TIP3     3236     TIP3     H2       HT       0.417000       1.00800           0
     32019 TIP3     3237     TIP3     OH2      OT      -0.834000       15.9994           0
     32020 TIP3     3237     TIP3     H1       HT       0.417000       1.00800           0
     32021 TIP3     3237     TIP3     H2       HT       0.417000       1.00800           0
     32022 TIP3     3238     TIP3     OH2      OT      -0.834000       15.9994           0
     32023 TIP3     3238     TIP3     H1       HT       0.417000       1.00800           0
     32024 TIP3     3238     TIP3     H2       HT       0.417000       1.00800           0
     32025 TIP3     3239     TIP3     OH2      OT      -0.834000       15.9994           0
     32026 TIP3     3239     TIP3     H1       HT       0.417000       1.00800           0
     32027 TIP3     3239     TIP3     H2       HT       0.417000       1.00800           0
     32028 TIP3     3240     TIP3     OH2      OT      -0.834000       15.9994           0
     32029 TIP3     3240     TIP3     H1       HT       0.417000       1.00800           0
     32030 TIP3     3240     TIP3     H2       HT       0.417000       1.00800           0
     32031 TIP3     3241     TIP3     OH2      OT      -0.834000       15.9994           0
     32032 TIP3     3241     TIP3     H1       HT       0.417000       1.00800           0
     32033 TIP3     3241     TIP3     H2       HT       0.417000       1.00800           0
     32034 TIP3     3242     TIP3     OH2      OT      -0.834000       15.9994           0
     32035 TIP3     3242     TIP3     H1       HT       0.417000       1.00800           0
     32036 TIP3     3242     TIP3     H2       HT       0.417000       1.00800           0
     32037 TIP3     3243     TIP3     OH2      OT      -0.834000       15.9994           0
     32038 TIP3     3243     TIP3     H1       HT       0.417000       1.00800           0
     32039 TIP3     3243     TIP3     H2       HT       0.417000       1.00800           0
     32040 TIP3     3244     TIP3     OH2      OT      -0.834000       15.9994           0
     32041 TIP3     3244     TIP3     H1       HT       0.417000       1.00800           0
     32042 TIP3     3244     TIP3     H2       HT       0.417000       1.00800           0
     32043 TIP3     3245     TIP3     OH2      OT      -0.834000       15.9994           0
     32044 TIP3     3245     TIP3     H1       HT       0.417000       1.00800           0
     32045 TIP3     3245     TIP3     H2       HT       0.417000       1.00800           0
     32046 TIP3     3246     TIP3     OH2      OT      -0.834000       15.9994           0
     32047 TIP3     3246     TIP3     H1       HT       0.417000       1.00800           0
     32048 TIP3     3246     TIP3     H2       HT       0.417000       1.00800           0
     32049 TIP3     3247     TIP3     OH2      OT      -0.834000       15.9994           0
     32050 TIP3     3247     TIP3     H1       HT       0.417000       1.00800           0
     32051 TIP3     3247     TIP3     H2       HT       0.417000       1.00800           0
     32052 TIP3     3248     TIP3     OH2      OT      -0.834000       15.9994           0
     32053 TIP3     3248     TIP3     H1       HT       0.417000       1.00800           0
     32054 TIP3     3248     TIP3     H2       HT       0.417000       1.00800           0
     32055 TIP3     3249     TIP3     OH2      OT      -0.834000       15.9994           0
     32056 TIP3     3249     TIP3     H1       HT       0.417000       1.00800           0
     32057 TIP3     3249     TIP3     H2       HT       0.417000       1.00800           0
     32058 TIP3     3250     TIP3     OH2      OT      -0.834000       15.9994           0
     32059 TIP3     3250     TIP3     H1       HT       0.417000       1.00800           0
     32060 TIP3     3250     TIP3     H2       HT       0.417000       1.00800           0
     32061 TIP3     3251     TIP3     OH2      OT      -0.834000       15.9994           0
     32062 TIP3     3251     TIP3     H1       HT       0.417000       1.00800           0
     32063 TIP3     3251     TIP3     H2       HT       0.417000       1.00800           0
     32064 TIP3     3252     TIP3     OH2      OT      -0.834000       15.9994           0
     32065 TIP3     3252     TIP3     H1       HT       0.417000       1.00800           0
     32066 TIP3     3252     TIP3     H2       HT       0.417000       1.00800           0
     32067 TIP3     3253     TIP3     OH2      OT      -0.834000       15.9994           0
     32068 TIP3     3253     TIP3     H1       HT       0.417000       1.00800           0
     32069 TIP3     3253     TIP3     H2       HT       0.417000       1.00800           0
     32070 TIP3     3254     TIP3     OH2      OT      -0.834000       15.9994           0
     32071 TIP3     3254     TIP3     H1       HT       0.417000       1.00800           0
     32072 TIP3     3254     TIP3     H2       HT       0.417000       1.00800           0
     32073 TIP3     3255     TIP3     OH2      OT      -0.834000       15.9994           0
     32074 TIP3     3255     TIP3     H1       HT       0.417000       1.00800           0
     32075 TIP3     3255     TIP3     H2       HT       0.417000       1.00800           0
     32076 TIP3     3256     TIP3     OH2      OT      -0.834000       15.9994           0
     32077 TIP3     3256     TIP3     H1       HT       0.417000       1.00800           0
     32078 TIP3     3256     TIP3     H2       HT       0.417000       1.00800           0
     32079 TIP3     3257     TIP3     OH2      OT      -0.834000       15.9994           0
     32080 TIP3     3257     TIP3     H1       HT       0.417000       1.00800           0
     32081 TIP3     3257     TIP3     H2       HT       0.417000       1.00800           0
     32082 TIP3     3258     TIP3     OH2      OT      -0.834000       15.9994           0
     32083 TIP3     3258     TIP3     H1       HT       0.417000       1.00800           0
     32084 TIP3     3258     TIP3     H2       HT       0.417000       1.00800           0
     32085 TIP3     3259     TIP3     OH2      OT      -0.834000       15.9994           0
     32086 TIP3     3259     TIP3     H1       HT       0.417000       1.00800           0
     32087 TIP3     3259     TIP3     H2       HT       0.417000       1.00800           0
     32088 TIP3     3260     TIP3     OH2      OT      -0.834000       15.9994           0
     32089 TIP3     3260     TIP3     H1       HT       0.417000       1.00800           0
     32090 TIP3     3260     TIP3     H2       HT       0.417000       1.00800           0
     32091 TIP3     3261     TIP3     OH2      OT      -0.834000       15.9994           0
     32092 TIP3     3261     TIP3     H1       HT       0.417000       1.00800           0
     32093 TIP3     3261     TIP3     H2       HT       0.417000       1.00800           0
     32094 TIP3     3262     TIP3     OH2      OT      -0.834000       15.9994           0
     32095 TIP3     3262     TIP3     H1       HT       0.417000       1.00800           0
     32096 TIP3     3262     TIP3     H2       HT       0.417000       1.00800           0
     32097 TIP3     3263     TIP3     OH2      OT      -0.834000       15.9994           0
     32098 TIP3     3263     TIP3     H1       HT       0.417000       1.00800           0
     32099 TIP3     3263     TIP3     H2       HT       0.417000       1.00800           0
     32100 TIP3     3264     TIP3     OH2      OT      -0.834000       15.9994           0
     32101 TIP3     3264     TIP3     H1       HT       0.417000       1.00800           0
     32102 TIP3     3264     TIP3     H2       HT       0.417000       1.00800           0
     32103 TIP3     3265     TIP3     OH2      OT      -0.834000       15.9994           0
     32104 TIP3     3265     TIP3     H1       HT       0.417000       1.00800           0
     32105 TIP3     3265     TIP3     H2       HT       0.417000       1.00800           0
     32106 TIP3     3266     TIP3     OH2      OT      -0.834000       15.9994           0
     32107 TIP3     3266     TIP3     H1       HT       0.417000       1.00800           0
     32108 TIP3     3266     TIP3     H2       HT       0.417000       1.00800           0
     32109 TIP3     3267     TIP3     OH2      OT      -0.834000       15.9994           0
     32110 TIP3     3267     TIP3     H1       HT       0.417000       1.00800           0
     32111 TIP3     3267     TIP3     H2       HT       0.417000       1.00800           0
     32112 TIP3     3268     TIP3     OH2      OT      -0.834000       15.9994           0
     32113 TIP3     3268     TIP3     H1       HT       0.417000       1.00800           0
     32114 TIP3     3268     TIP3     H2       HT       0.417000       1.00800           0
     32115 TIP3     3269     TIP3     OH2      OT      -0.834000       15.9994           0
     32116 TIP3     3269     TIP3     H1       HT       0.417000       1.00800           0
     32117 TIP3     3269     TIP3     H2       HT       0.417000       1.00800           0
     32118 TIP3     3270     TIP3     OH2      OT      -0.834000       15.9994           0
     32119 TIP3     3270     TIP3     H1       HT       0.417000       1.00800           0
     32120 TIP3     3270     TIP3     H2       HT       0.417000       1.00800           0
     32121 TIP3     3271     TIP3     OH2      OT      -0.834000       15.9994           0
     32122 TIP3     3271     TIP3     H1       HT       0.417000       1.00800           0
     32123 TIP3     3271     TIP3     H2       HT       0.417000       1.00800           0
     32124 TIP3     3272     TIP3     OH2      OT      -0.834000       15.9994           0
     32125 TIP3     3272     TIP3     H1       HT       0.417000       1.00800           0
     32126 TIP3     3272     TIP3     H2       HT       0.417000       1.00800           0
     32127 TIP3     3273     TIP3     OH2      OT      -0.834000       15.9994           0
     32128 TIP3     3273     TIP3     H1       HT       0.417000       1.00800           0
     32129 TIP3     3273     TIP3     H2       HT       0.417000       1.00800           0
     32130 TIP3     3274     TIP3     OH2      OT      -0.834000       15.9994           0
     32131 TIP3     3274     TIP3     H1       HT       0.417000       1.00800           0
     32132 TIP3     3274     TIP3     H2       HT       0.417000       1.00800           0
     32133 TIP3     3275     TIP3     OH2      OT      -0.834000       15.9994           0
     32134 TIP3     3275     TIP3     H1       HT       0.417000       1.00800           0
     32135 TIP3     3275     TIP3     H2       HT       0.417000       1.00800           0
     32136 TIP3     3276     TIP3     OH2      OT      -0.834000       15.9994           0
     32137 TIP3     3276     TIP3     H1       HT       0.417000       1.00800           0
     32138 TIP3     3276     TIP3     H2       HT       0.417000       1.00800           0
     32139 TIP3     3277     TIP3     OH2      OT      -0.834000       15.9994           0
     32140 TIP3     3277     TIP3     H1       HT       0.417000       1.00800           0
     32141 TIP3     3277     TIP3     H2       HT       0.417000       1.00800           0
     32142 TIP3     3278     TIP3     OH2      OT      -0.834000       15.9994           0
     32143 TIP3     3278     TIP3     H1       HT       0.417000       1.00800           0
     32144 TIP3     3278     TIP3     H2       HT       0.417000       1.00800           0
     32145 TIP3     3279     TIP3     OH2      OT      -0.834000       15.9994           0
     32146 TIP3     3279     TIP3     H1       HT       0.417000       1.00800           0
     32147 TIP3     3279     TIP3     H2       HT       0.417000       1.00800           0
     32148 TIP3     3280     TIP3     OH2      OT      -0.834000       15.9994           0
     32149 TIP3     3280     TIP3     H1       HT       0.417000       1.00800           0
     32150 TIP3     3280     TIP3     H2       HT       0.417000       1.00800           0
     32151 TIP3     3281     TIP3     OH2      OT      -0.834000       15.9994           0
     32152 TIP3     3281     TIP3     H1       HT       0.417000       1.00800           0
     32153 TIP3     3281     TIP3     H2       HT       0.417000       1.00800           0
     32154 TIP3     3282     TIP3     OH2      OT      -0.834000       15.9994           0
     32155 TIP3     3282     TIP3     H1       HT       0.417000       1.00800           0
     32156 TIP3     3282     TIP3     H2       HT       0.417000       1.00800           0
     32157 TIP3     3283     TIP3     OH2      OT      -0.834000       15.9994           0
     32158 TIP3     3283     TIP3     H1       HT       0.417000       1.00800           0
     32159 TIP3     3283     TIP3     H2       HT       0.417000       1.00800           0
     32160 TIP3     3284     TIP3     OH2      OT      -0.834000       15.9994           0
     32161 TIP3     3284     TIP3     H1       HT       0.417000       1.00800           0
     32162 TIP3     3284     TIP3     H2       HT       0.417000       1.00800           0
     32163 TIP3     3285     TIP3     OH2      OT      -0.834000       15.9994           0
     32164 TIP3     3285     TIP3     H1       HT       0.417000       1.00800           0
     32165 TIP3     3285     TIP3     H2       HT       0.417000       1.00800           0
     32166 TIP3     3286     TIP3     OH2      OT      -0.834000       15.9994           0
     32167 TIP3     3286     TIP3     H1       HT       0.417000       1.00800           0
     32168 TIP3     3286     TIP3     H2       HT       0.417000       1.00800           0
     32169 TIP3     3287     TIP3     OH2      OT      -0.834000       15.9994           0
     32170 TIP3     3287     TIP3     H1       HT       0.417000       1.00800           0
     32171 TIP3     3287     TIP3     H2       HT       0.417000       1.00800           0
     32172 TIP3     3288     TIP3     OH2      OT      -0.834000       15.9994           0
     32173 TIP3     3288     TIP3     H1       HT       0.417000       1.00800           0
     32174 TIP3     3288     TIP3     H2       HT       0.417000       1.00800           0
     32175 TIP3     3289     TIP3     OH2      OT      -0.834000       15.9994           0
     32176 TIP3     3289     TIP3     H1       HT       0.417000       1.00800           0
     32177 TIP3     3289     TIP3     H2       HT       0.417000       1.00800           0
     32178 TIP3     3290     TIP3     OH2      OT      -0.834000       15.9994           0
     32179 TIP3     3290     TIP3     H1       HT       0.417000       1.00800           0
     32180 TIP3     3290     TIP3     H2       HT       0.417000       1.00800           0
     32181 TIP3     3291     TIP3     OH2      OT      -0.834000       15.9994           0
     32182 TIP3     3291     TIP3     H1       HT       0.417000       1.00800           0
     32183 TIP3     3291     TIP3     H2       HT       0.417000       1.00800           0
     32184 TIP3     3292     TIP3     OH2      OT      -0.834000       15.9994           0
     32185 TIP3     3292     TIP3     H1       HT       0.417000       1.00800           0
     32186 TIP3     3292     TIP3     H2       HT       0.417000       1.00800           0
     32187 TIP3     3293     TIP3     OH2      OT      -0.834000       15.9994           0
     32188 TIP3     3293     TIP3     H1       HT       0.417000       1.00800           0
     32189 TIP3     3293     TIP3     H2       HT       0.417000       1.00800           0
     32190 TIP3     3294     TIP3     OH2      OT      -0.834000       15.9994           0
     32191 TIP3     3294     TIP3     H1       HT       0.417000       1.00800           0
     32192 TIP3     3294     TIP3     H2       HT       0.417000       1.00800           0
     32193 TIP3     3295     TIP3     OH2      OT      -0.834000       15.9994           0
     32194 TIP3     3295     TIP3     H1       HT       0.417000       1.00800           0
     32195 TIP3     3295     TIP3     H2       HT       0.417000       1.00800           0
     32196 TIP3     3296     TIP3     OH2      OT      -0.834000       15.9994           0
     32197 TIP3     3296     TIP3     H1       HT       0.417000       1.00800           0
     32198 TIP3     3296     TIP3     H2       HT       0.417000       1.00800           0
     32199 TIP3     3297     TIP3     OH2      OT      -0.834000       15.9994           0
     32200 TIP3     3297     TIP3     H1       HT       0.417000       1.00800           0
     32201 TIP3     3297     TIP3     H2       HT       0.417000       1.00800           0
     32202 TIP3     3298     TIP3     OH2      OT      -0.834000       15.9994           0
     32203 TIP3     3298     TIP3     H1       HT       0.417000       1.00800           0
     32204 TIP3     3298     TIP3     H2       HT       0.417000       1.00800           0
     32205 TIP3     3299     TIP3     OH2      OT      -0.834000       15.9994           0
     32206 TIP3     3299     TIP3     H1       HT       0.417000       1.00800           0
     32207 TIP3     3299     TIP3     H2       HT       0.417000       1.00800           0
     32208 TIP3     3300     TIP3     OH2      OT      -0.834000       15.9994           0
     32209 TIP3     3300     TIP3     H1       HT       0.417000       1.00800           0
     32210 TIP3     3300     TIP3     H2       HT       0.417000       1.00800           0
     32211 TIP3     3301     TIP3     OH2      OT      -0.834000       15.9994           0
     32212 TIP3     3301     TIP3     H1       HT       0.417000       1.00800           0
     32213 TIP3     3301     TIP3     H2       HT       0.417000       1.00800           0
     32214 TIP3     3302     TIP3     OH2      OT      -0.834000       15.9994           0
     32215 TIP3     3302     TIP3     H1       HT       0.417000       1.00800           0
     32216 TIP3     3302     TIP3     H2       HT       0.417000       1.00800           0
     32217 TIP3     3303     TIP3     OH2      OT      -0.834000       15.9994           0
     32218 TIP3     3303     TIP3     H1       HT       0.417000       1.00800           0
     32219 TIP3     3303     TIP3     H2       HT       0.417000       1.00800           0
     32220 TIP3     3304     TIP3     OH2      OT      -0.834000       15.9994           0
     32221 TIP3     3304     TIP3     H1       HT       0.417000       1.00800           0
     32222 TIP3     3304     TIP3     H2       HT       0.417000       1.00800           0
     32223 TIP3     3305     TIP3     OH2      OT      -0.834000       15.9994           0
     32224 TIP3     3305     TIP3     H1       HT       0.417000       1.00800           0
     32225 TIP3     3305     TIP3     H2       HT       0.417000       1.00800           0
     32226 TIP3     3306     TIP3     OH2      OT      -0.834000       15.9994           0
     32227 TIP3     3306     TIP3     H1       HT       0.417000       1.00800           0
     32228 TIP3     3306     TIP3     H2       HT       0.417000       1.00800           0
     32229 TIP3     3307     TIP3     OH2      OT      -0.834000       15.9994           0
     32230 TIP3     3307     TIP3     H1       HT       0.417000       1.00800           0
     32231 TIP3     3307     TIP3     H2       HT       0.417000       1.00800           0
     32232 TIP3     3308     TIP3     OH2      OT      -0.834000       15.9994           0
     32233 TIP3     3308     TIP3     H1       HT       0.417000       1.00800           0
     32234 TIP3     3308     TIP3     H2       HT       0.417000       1.00800           0
     32235 TIP3     3309     TIP3     OH2      OT      -0.834000       15.9994           0
     32236 TIP3     3309     TIP3     H1       HT       0.417000       1.00800           0
     32237 TIP3     3309     TIP3     H2       HT       0.417000       1.00800           0
     32238 TIP3     3310     TIP3     OH2      OT      -0.834000       15.9994           0
     32239 TIP3     3310     TIP3     H1       HT       0.417000       1.00800           0
     32240 TIP3     3310     TIP3     H2       HT       0.417000       1.00800           0
     32241 TIP3     3311     TIP3     OH2      OT      -0.834000       15.9994           0
     32242 TIP3     3311     TIP3     H1       HT       0.417000       1.00800           0
     32243 TIP3     3311     TIP3     H2       HT       0.417000       1.00800           0
     32244 TIP3     3312     TIP3     OH2      OT      -0.834000       15.9994           0
     32245 TIP3     3312     TIP3     H1       HT       0.417000       1.00800           0
     32246 TIP3     3312     TIP3     H2       HT       0.417000       1.00800           0
     32247 TIP3     3313     TIP3     OH2      OT      -0.834000       15.9994           0
     32248 TIP3     3313     TIP3     H1       HT       0.417000       1.00800           0
     32249 TIP3     3313     TIP3     H2       HT       0.417000       1.00800           0
     32250 TIP3     3314     TIP3     OH2      OT      -0.834000       15.9994           0
     32251 TIP3     3314     TIP3     H1       HT       0.417000       1.00800           0
     32252 TIP3     3314     TIP3     H2       HT       0.417000       1.00800           0
     32253 TIP3     3315     TIP3     OH2      OT      -0.834000       15.9994           0
     32254 TIP3     3315     TIP3     H1       HT       0.417000       1.00800           0
     32255 TIP3     3315     TIP3     H2       HT       0.417000       1.00800           0
     32256 TIP3     3316     TIP3     OH2      OT      -0.834000       15.9994           0
     32257 TIP3     3316     TIP3     H1       HT       0.417000       1.00800           0
     32258 TIP3     3316     TIP3     H2       HT       0.417000       1.00800           0
     32259 TIP3     3317     TIP3     OH2      OT      -0.834000       15.9994           0
     32260 TIP3     3317     TIP3     H1       HT       0.417000       1.00800           0
     32261 TIP3     3317     TIP3     H2       HT       0.417000       1.00800           0
     32262 TIP3     3318     TIP3     OH2      OT      -0.834000       15.9994           0
     32263 TIP3     3318     TIP3     H1       HT       0.417000       1.00800           0
     32264 TIP3     3318     TIP3     H2       HT       0.417000       1.00800           0
     32265 TIP3     3319     TIP3     OH2      OT      -0.834000       15.9994           0
     32266 TIP3     3319     TIP3     H1       HT       0.417000       1.00800           0
     32267 TIP3     3319     TIP3     H2       HT       0.417000       1.00800           0
     32268 TIP3     3320     TIP3     OH2      OT      -0.834000       15.9994           0
     32269 TIP3     3320     TIP3     H1       HT       0.417000       1.00800           0
     32270 TIP3     3320     TIP3     H2       HT       0.417000       1.00800           0
     32271 TIP3     3321     TIP3     OH2      OT      -0.834000       15.9994           0
     32272 TIP3     3321     TIP3     H1       HT       0.417000       1.00800           0
     32273 TIP3     3321     TIP3     H2       HT       0.417000       1.00800           0
     32274 TIP3     3322     TIP3     OH2      OT      -0.834000       15.9994           0
     32275 TIP3     3322     TIP3     H1       HT       0.417000       1.00800           0
     32276 TIP3     3322     TIP3     H2       HT       0.417000       1.00800           0
     32277 TIP3     3323     TIP3     OH2      OT      -0.834000       15.9994           0
     32278 TIP3     3323     TIP3     H1       HT       0.417000       1.00800           0
     32279 TIP3     3323     TIP3     H2       HT       0.417000       1.00800           0
     32280 TIP3     3324     TIP3     OH2      OT      -0.834000       15.9994           0
     32281 TIP3     3324     TIP3     H1       HT       0.417000       1.00800           0
     32282 TIP3     3324     TIP3     H2       HT       0.417000       1.00800           0
     32283 TIP3     3325     TIP3     OH2      OT      -0.834000       15.9994           0
     32284 TIP3     3325     TIP3     H1       HT       0.417000       1.00800           0
     32285 TIP3     3325     TIP3     H2       HT       0.417000       1.00800           0
     32286 TIP3     3326     TIP3     OH2      OT      -0.834000       15.9994           0
     32287 TIP3     3326     TIP3     H1       HT       0.417000       1.00800           0
     32288 TIP3     3326     TIP3     H2       HT       0.417000       1.00800           0
     32289 TIP3     3327     TIP3     OH2      OT      -0.834000       15.9994           0
     32290 TIP3     3327     TIP3     H1       HT       0.417000       1.00800           0
     32291 TIP3     3327     TIP3     H2       HT       0.417000       1.00800           0
     32292 TIP3     3328     TIP3     OH2      OT      -0.834000       15.9994           0
     32293 TIP3     3328     TIP3     H1       HT       0.417000       1.00800           0
     32294 TIP3     3328     TIP3     H2       HT       0.417000       1.00800           0
     32295 TIP3     3329     TIP3     OH2      OT      -0.834000       15.9994           0
     32296 TIP3     3329     TIP3     H1       HT       0.417000       1.00800           0
     32297 TIP3     3329     TIP3     H2       HT       0.417000       1.00800           0
     32298 TIP3     3330     TIP3     OH2      OT      -0.834000       15.9994           0
     32299 TIP3     3330     TIP3     H1       HT       0.417000       1.00800           0
     32300 TIP3     3330     TIP3     H2       HT       0.417000       1.00800           0
     32301 TIP3     3331     TIP3     OH2      OT      -0.834000       15.9994           0
     32302 TIP3     3331     TIP3     H1       HT       0.417000       1.00800           0
     32303 TIP3     3331     TIP3     H2       HT       0.417000       1.00800           0
     32304 TIP3     3332     TIP3     OH2      OT      -0.834000       15.9994           0
     32305 TIP3     3332     TIP3     H1       HT       0.417000       1.00800           0
     32306 TIP3     3332     TIP3     H2       HT       0.417000       1.00800           0
     32307 TIP3     3333     TIP3     OH2      OT      -0.834000       15.9994           0
     32308 TIP3     3333     TIP3     H1       HT       0.417000       1.00800           0
     32309 TIP3     3333     TIP3     H2       HT       0.417000       1.00800           0
     32310 TIP3     3334     TIP3     OH2      OT      -0.834000       15.9994           0
     32311 TIP3     3334     TIP3     H1       HT       0.417000       1.00800           0
     32312 TIP3     3334     TIP3     H2       HT       0.417000       1.00800           0
     32313 TIP3     3335     TIP3     OH2      OT      -0.834000       15.9994           0
     32314 TIP3     3335     TIP3     H1       HT       0.417000       1.00800           0
     32315 TIP3     3335     TIP3     H2       HT       0.417000       1.00800           0
     32316 TIP3     3336     TIP3     OH2      OT      -0.834000       15.9994           0
     32317 TIP3     3336     TIP3     H1       HT       0.417000       1.00800           0
     32318 TIP3     3336     TIP3     H2       HT       0.417000       1.00800           0
     32319 TIP3     3337     TIP3     OH2      OT      -0.834000       15.9994           0
     32320 TIP3     3337     TIP3     H1       HT       0.417000       1.00800           0
     32321 TIP3     3337     TIP3     H2       HT       0.417000       1.00800           0
     32322 TIP3     3338     TIP3     OH2      OT      -0.834000       15.9994           0
     32323 TIP3     3338     TIP3     H1       HT       0.417000       1.00800           0
     32324 TIP3     3338     TIP3     H2       HT       0.417000       1.00800           0
     32325 TIP3     3339     TIP3     OH2      OT      -0.834000       15.9994           0
     32326 TIP3     3339     TIP3     H1       HT       0.417000       1.00800           0
     32327 TIP3     3339     TIP3     H2       HT       0.417000       1.00800           0
     32328 TIP3     3340     TIP3     OH2      OT      -0.834000       15.9994           0
     32329 TIP3     3340     TIP3     H1       HT       0.417000       1.00800           0
     32330 TIP3     3340     TIP3     H2       HT       0.417000       1.00800           0
     32331 TIP3     3341     TIP3     OH2      OT      -0.834000       15.9994           0
     32332 TIP3     3341     TIP3     H1       HT       0.417000       1.00800           0
     32333 TIP3     3341     TIP3     H2       HT       0.417000       1.00800           0
     32334 TIP3     3342     TIP3     OH2      OT      -0.834000       15.9994           0
     32335 TIP3     3342     TIP3     H1       HT       0.417000       1.00800           0
     32336 TIP3     3342     TIP3     H2       HT       0.417000       1.00800           0
     32337 TIP3     3343     TIP3     OH2      OT      -0.834000       15.9994           0
     32338 TIP3     3343     TIP3     H1       HT       0.417000       1.00800           0
     32339 TIP3     3343     TIP3     H2       HT       0.417000       1.00800           0
     32340 TIP3     3344     TIP3     OH2      OT      -0.834000       15.9994           0
     32341 TIP3     3344     TIP3     H1       HT       0.417000       1.00800           0
     32342 TIP3     3344     TIP3     H2       HT       0.417000       1.00800           0
     32343 TIP3     3345     TIP3     OH2      OT      -0.834000       15.9994           0
     32344 TIP3     3345     TIP3     H1       HT       0.417000       1.00800           0
     32345 TIP3     3345     TIP3     H2       HT       0.417000       1.00800           0
     32346 TIP3     3346     TIP3     OH2      OT      -0.834000       15.9994           0
     32347 TIP3     3346     TIP3     H1       HT       0.417000       1.00800           0
     32348 TIP3     3346     TIP3     H2       HT       0.417000       1.00800           0
     32349 TIP3     3347     TIP3     OH2      OT      -0.834000       15.9994           0
     32350 TIP3     3347     TIP3     H1       HT       0.417000       1.00800           0
     32351 TIP3     3347     TIP3     H2       HT       0.417000       1.00800           0
     32352 TIP3     3348     TIP3     OH2      OT      -0.834000       15.9994           0
     32353 TIP3     3348     TIP3     H1       HT       0.417000       1.00800           0
     32354 TIP3     3348     TIP3     H2       HT       0.417000       1.00800           0
     32355 TIP3     3349     TIP3     OH2      OT      -0.834000       15.9994           0
     32356 TIP3     3349     TIP3     H1       HT       0.417000       1.00800           0
     32357 TIP3     3349     TIP3     H2       HT       0.417000       1.00800           0
     32358 TIP3     3350     TIP3     OH2      OT      -0.834000       15.9994           0
     32359 TIP3     3350     TIP3     H1       HT       0.417000       1.00800           0
     32360 TIP3     3350     TIP3     H2       HT       0.417000       1.00800           0
     32361 TIP3     3351     TIP3     OH2      OT      -0.834000       15.9994           0
     32362 TIP3     3351     TIP3     H1       HT       0.417000       1.00800           0
     32363 TIP3     3351     TIP3     H2       HT       0.417000       1.00800           0
     32364 TIP3     3352     TIP3     OH2      OT      -0.834000       15.9994           0
     32365 TIP3     3352     TIP3     H1       HT       0.417000       1.00800           0
     32366 TIP3     3352     TIP3     H2       HT       0.417000       1.00800           0
     32367 TIP3     3353     TIP3     OH2      OT      -0.834000       15.9994           0
     32368 TIP3     3353     TIP3     H1       HT       0.417000       1.00800           0
     32369 TIP3     3353     TIP3     H2       HT       0.417000       1.00800           0
     32370 TIP3     3354     TIP3     OH2      OT      -0.834000       15.9994           0
     32371 TIP3     3354     TIP3     H1       HT       0.417000       1.00800           0
     32372 TIP3     3354     TIP3     H2       HT       0.417000       1.00800           0
     32373 TIP3     3355     TIP3     OH2      OT      -0.834000       15.9994           0
     32374 TIP3     3355     TIP3     H1       HT       0.417000       1.00800           0
     32375 TIP3     3355     TIP3     H2       HT       0.417000       1.00800           0
     32376 TIP3     3356     TIP3     OH2      OT      -0.834000       15.9994           0
     32377 TIP3     3356     TIP3     H1       HT       0.417000       1.00800           0
     32378 TIP3     3356     TIP3     H2       HT       0.417000       1.00800           0
     32379 TIP3     3357     TIP3     OH2      OT      -0.834000       15.9994           0
     32380 TIP3     3357     TIP3     H1       HT       0.417000       1.00800           0
     32381 TIP3     3357     TIP3     H2       HT       0.417000       1.00800           0
     32382 TIP3     3358     TIP3     OH2      OT      -0.834000       15.9994           0
     32383 TIP3     3358     TIP3     H1       HT       0.417000       1.00800           0
     32384 TIP3     3358     TIP3     H2       HT       0.417000       1.00800           0
     32385 TIP3     3359     TIP3     OH2      OT      -0.834000       15.9994           0
     32386 TIP3     3359     TIP3     H1       HT       0.417000       1.00800           0
     32387 TIP3     3359     TIP3     H2       HT       0.417000       1.00800           0
     32388 TIP3     3360     TIP3     OH2      OT      -0.834000       15.9994           0
     32389 TIP3     3360     TIP3     H1       HT       0.417000       1.00800           0
     32390 TIP3     3360     TIP3     H2       HT       0.417000       1.00800           0
     32391 TIP3     3361     TIP3     OH2      OT      -0.834000       15.9994           0
     32392 TIP3     3361     TIP3     H1       HT       0.417000       1.00800           0
     32393 TIP3     3361     TIP3     H2       HT       0.417000       1.00800           0
     32394 TIP3     3362     TIP3     OH2      OT      -0.834000       15.9994           0
     32395 TIP3     3362     TIP3     H1       HT       0.417000       1.00800           0
     32396 TIP3     3362     TIP3     H2       HT       0.417000       1.00800           0
     32397 TIP3     3363     TIP3     OH2      OT      -0.834000       15.9994           0
     32398 TIP3     3363     TIP3     H1       HT       0.417000       1.00800           0
     32399 TIP3     3363     TIP3     H2       HT       0.417000       1.00800           0
     32400 TIP3     3364     TIP3     OH2      OT      -0.834000       15.9994           0
     32401 TIP3     3364     TIP3     H1       HT       0.417000       1.00800           0
     32402 TIP3     3364     TIP3     H2       HT       0.417000       1.00800           0
     32403 TIP3     3365     TIP3     OH2      OT      -0.834000       15.9994           0
     32404 TIP3     3365     TIP3     H1       HT       0.417000       1.00800           0
     32405 TIP3     3365     TIP3     H2       HT       0.417000       1.00800           0
     32406 TIP3     3366     TIP3     OH2      OT      -0.834000       15.9994           0
     32407 TIP3     3366     TIP3     H1       HT       0.417000       1.00800           0
     32408 TIP3     3366     TIP3     H2       HT       0.417000       1.00800           0
     32409 TIP3     3367     TIP3     OH2      OT      -0.834000       15.9994           0
     32410 TIP3     3367     TIP3     H1       HT       0.417000       1.00800           0
     32411 TIP3     3367     TIP3     H2       HT       0.417000       1.00800           0
     32412 TIP3     3368     TIP3     OH2      OT      -0.834000       15.9994           0
     32413 TIP3     3368     TIP3     H1       HT       0.417000       1.00800           0
     32414 TIP3     3368     TIP3     H2       HT       0.417000       1.00800           0
     32415 TIP3     3369     TIP3     OH2      OT      -0.834000       15.9994           0
     32416 TIP3     3369     TIP3     H1       HT       0.417000       1.00800           0
     32417 TIP3     3369     TIP3     H2       HT       0.417000       1.00800           0
     32418 TIP3     3370     TIP3     OH2      OT      -0.834000       15.9994           0
     32419 TIP3     3370     TIP3     H1       HT       0.417000       1.00800           0
     32420 TIP3     3370     TIP3     H2       HT       0.417000       1.00800           0
     32421 TIP3     3371     TIP3     OH2      OT      -0.834000       15.9994           0
     32422 TIP3     3371     TIP3     H1       HT       0.417000       1.00800           0
     32423 TIP3     3371     TIP3     H2       HT       0.417000       1.00800           0
     32424 TIP3     3372     TIP3     OH2      OT      -0.834000       15.9994           0
     32425 TIP3     3372     TIP3     H1       HT       0.417000       1.00800           0
     32426 TIP3     3372     TIP3     H2       HT       0.417000       1.00800           0
     32427 TIP3     3373     TIP3     OH2      OT      -0.834000       15.9994           0
     32428 TIP3     3373     TIP3     H1       HT       0.417000       1.00800           0
     32429 TIP3     3373     TIP3     H2       HT       0.417000       1.00800           0
     32430 TIP3     3374     TIP3     OH2      OT      -0.834000       15.9994           0
     32431 TIP3     3374     TIP3     H1       HT       0.417000       1.00800           0
     32432 TIP3     3374     TIP3     H2       HT       0.417000       1.00800           0
     32433 TIP3     3375     TIP3     OH2      OT      -0.834000       15.9994           0
     32434 TIP3     3375     TIP3     H1       HT       0.417000       1.00800           0
     32435 TIP3     3375     TIP3     H2       HT       0.417000       1.00800           0
     32436 TIP3     3376     TIP3     OH2      OT      -0.834000       15.9994           0
     32437 TIP3     3376     TIP3     H1       HT       0.417000       1.00800           0
     32438 TIP3     3376     TIP3     H2       HT       0.417000       1.00800           0
     32439 TIP3     3377     TIP3     OH2      OT      -0.834000       15.9994           0
     32440 TIP3     3377     TIP3     H1       HT       0.417000       1.00800           0
     32441 TIP3     3377     TIP3     H2       HT       0.417000       1.00800           0
     32442 TIP3     3378     TIP3     OH2      OT      -0.834000       15.9994           0
     32443 TIP3     3378     TIP3     H1       HT       0.417000       1.00800           0
     32444 TIP3     3378     TIP3     H2       HT       0.417000       1.00800           0
     32445 TIP3     3379     TIP3     OH2      OT      -0.834000       15.9994           0
     32446 TIP3     3379     TIP3     H1       HT       0.417000       1.00800           0
     32447 TIP3     3379     TIP3     H2       HT       0.417000       1.00800           0
     32448 TIP3     3380     TIP3     OH2      OT      -0.834000       15.9994           0
     32449 TIP3     3380     TIP3     H1       HT       0.417000       1.00800           0
     32450 TIP3     3380     TIP3     H2       HT       0.417000       1.00800           0
     32451 TIP3     3381     TIP3     OH2      OT      -0.834000       15.9994           0
     32452 TIP3     3381     TIP3     H1       HT       0.417000       1.00800           0
     32453 TIP3     3381     TIP3     H2       HT       0.417000       1.00800           0
     32454 TIP3     3382     TIP3     OH2      OT      -0.834000       15.9994           0
     32455 TIP3     3382     TIP3     H1       HT       0.417000       1.00800           0
     32456 TIP3     3382     TIP3     H2       HT       0.417000       1.00800           0
     32457 TIP3     3383     TIP3     OH2      OT      -0.834000       15.9994           0
     32458 TIP3     3383     TIP3     H1       HT       0.417000       1.00800           0
     32459 TIP3     3383     TIP3     H2       HT       0.417000       1.00800           0
     32460 TIP3     3384     TIP3     OH2      OT      -0.834000       15.9994           0
     32461 TIP3     3384     TIP3     H1       HT       0.417000       1.00800           0
     32462 TIP3     3384     TIP3     H2       HT       0.417000       1.00800           0
     32463 TIP3     3385     TIP3     OH2      OT      -0.834000       15.9994           0
     32464 TIP3     3385     TIP3     H1       HT       0.417000       1.00800           0
     32465 TIP3     3385     TIP3     H2       HT       0.417000       1.00800           0
     32466 TIP3     3386     TIP3     OH2      OT      -0.834000       15.9994           0
     32467 TIP3     3386     TIP3     H1       HT       0.417000       1.00800           0
     32468 TIP3     3386     TIP3     H2       HT       0.417000       1.00800           0
     32469 TIP3     3387     TIP3     OH2      OT      -0.834000       15.9994           0
     32470 TIP3     3387     TIP3     H1       HT       0.417000       1.00800           0
     32471 TIP3     3387     TIP3     H2       HT       0.417000       1.00800           0
     32472 TIP3     3388     TIP3     OH2      OT      -0.834000       15.9994           0
     32473 TIP3     3388     TIP3     H1       HT       0.417000       1.00800           0
     32474 TIP3     3388     TIP3     H2       HT       0.417000       1.00800           0
     32475 TIP3     3389     TIP3     OH2      OT      -0.834000       15.9994           0
     32476 TIP3     3389     TIP3     H1       HT       0.417000       1.00800           0
     32477 TIP3     3389     TIP3     H2       HT       0.417000       1.00800           0
     32478 TIP3     3390     TIP3     OH2      OT      -0.834000       15.9994           0
     32479 TIP3     3390     TIP3     H1       HT       0.417000       1.00800           0
     32480 TIP3     3390     TIP3     H2       HT       0.417000       1.00800           0
     32481 TIP3     3391     TIP3     OH2      OT      -0.834000       15.9994           0
     32482 TIP3     3391     TIP3     H1       HT       0.417000       1.00800           0
     32483 TIP3     3391     TIP3     H2       HT       0.417000       1.00800           0
     32484 TIP3     3392     TIP3     OH2      OT      -0.834000       15.9994           0
     32485 TIP3     3392     TIP3     H1       HT       0.417000       1.00800           0
     32486 TIP3     3392     TIP3     H2       HT       0.417000       1.00800           0
     32487 TIP3     3393     TIP3     OH2      OT      -0.834000       15.9994           0
     32488 TIP3     3393     TIP3     H1       HT       0.417000       1.00800           0
     32489 TIP3     3393     TIP3     H2       HT       0.417000       1.00800           0
     32490 TIP3     3394     TIP3     OH2      OT      -0.834000       15.9994           0
     32491 TIP3     3394     TIP3     H1       HT       0.417000       1.00800           0
     32492 TIP3     3394     TIP3     H2       HT       0.417000       1.00800           0
     32493 TIP3     3395     TIP3     OH2      OT      -0.834000       15.9994           0
     32494 TIP3     3395     TIP3     H1       HT       0.417000       1.00800           0
     32495 TIP3     3395     TIP3     H2       HT       0.417000       1.00800           0
     32496 TIP3     3396     TIP3     OH2      OT      -0.834000       15.9994           0
     32497 TIP3     3396     TIP3     H1       HT       0.417000       1.00800           0
     32498 TIP3     3396     TIP3     H2       HT       0.417000       1.00800           0
     32499 TIP3     3397     TIP3     OH2      OT      -0.834000       15.9994           0
     32500 TIP3     3397     TIP3     H1       HT       0.417000       1.00800           0
     32501 TIP3     3397     TIP3     H2       HT       0.417000       1.00800           0
     32502 TIP3     3398     TIP3     OH2      OT      -0.834000       15.9994           0
     32503 TIP3     3398     TIP3     H1       HT       0.417000       1.00800           0
     32504 TIP3     3398     TIP3     H2       HT       0.417000       1.00800           0
     32505 TIP3     3399     TIP3     OH2      OT      -0.834000       15.9994           0
     32506 TIP3     3399     TIP3     H1       HT       0.417000       1.00800           0
     32507 TIP3     3399     TIP3     H2       HT       0.417000       1.00800           0
     32508 TIP3     3400     TIP3     OH2      OT      -0.834000       15.9994           0
     32509 TIP3     3400     TIP3     H1       HT       0.417000       1.00800           0
     32510 TIP3     3400     TIP3     H2       HT       0.417000       1.00800           0
     32511 TIP3     3401     TIP3     OH2      OT      -0.834000       15.9994           0
     32512 TIP3     3401     TIP3     H1       HT       0.417000       1.00800           0
     32513 TIP3     3401     TIP3     H2       HT       0.417000       1.00800           0
     32514 TIP3     3402     TIP3     OH2      OT      -0.834000       15.9994           0
     32515 TIP3     3402     TIP3     H1       HT       0.417000       1.00800           0
     32516 TIP3     3402     TIP3     H2       HT       0.417000       1.00800           0
     32517 TIP3     3403     TIP3     OH2      OT      -0.834000       15.9994           0
     32518 TIP3     3403     TIP3     H1       HT       0.417000       1.00800           0
     32519 TIP3     3403     TIP3     H2       HT       0.417000       1.00800           0
     32520 TIP3     3404     TIP3     OH2      OT      -0.834000       15.9994           0
     32521 TIP3     3404     TIP3     H1       HT       0.417000       1.00800           0
     32522 TIP3     3404     TIP3     H2       HT       0.417000       1.00800           0
     32523 TIP3     3405     TIP3     OH2      OT      -0.834000       15.9994           0
     32524 TIP3     3405     TIP3     H1       HT       0.417000       1.00800           0
     32525 TIP3     3405     TIP3     H2       HT       0.417000       1.00800           0
     32526 TIP3     3406     TIP3     OH2      OT      -0.834000       15.9994           0
     32527 TIP3     3406     TIP3     H1       HT       0.417000       1.00800           0
     32528 TIP3     3406     TIP3     H2       HT       0.417000       1.00800           0
     32529 TIP3     3407     TIP3     OH2      OT      -0.834000       15.9994           0
     32530 TIP3     3407     TIP3     H1       HT       0.417000       1.00800           0
     32531 TIP3     3407     TIP3     H2       HT       0.417000       1.00800           0
     32532 TIP3     3408     TIP3     OH2      OT      -0.834000       15.9994           0
     32533 TIP3     3408     TIP3     H1       HT       0.417000       1.00800           0
     32534 TIP3     3408     TIP3     H2       HT       0.417000       1.00800           0
     32535 TIP3     3409     TIP3     OH2      OT      -0.834000       15.9994           0
     32536 TIP3     3409     TIP3     H1       HT       0.417000       1.00800           0
     32537 TIP3     3409     TIP3     H2       HT       0.417000       1.00800           0
     32538 TIP3     3410     TIP3     OH2      OT      -0.834000       15.9994           0
     32539 TIP3     3410     TIP3     H1       HT       0.417000       1.00800           0
     32540 TIP3     3410     TIP3     H2       HT       0.417000       1.00800           0
     32541 TIP3     3411     TIP3     OH2      OT      -0.834000       15.9994           0
     32542 TIP3     3411     TIP3     H1       HT       0.417000       1.00800           0
     32543 TIP3     3411     TIP3     H2       HT       0.417000       1.00800           0
     32544 TIP3     3412     TIP3     OH2      OT      -0.834000       15.9994           0
     32545 TIP3     3412     TIP3     H1       HT       0.417000       1.00800           0
     32546 TIP3     3412     TIP3     H2       HT       0.417000       1.00800           0
     32547 TIP3     3413     TIP3     OH2      OT      -0.834000       15.9994           0
     32548 TIP3     3413     TIP3     H1       HT       0.417000       1.00800           0
     32549 TIP3     3413     TIP3     H2       HT       0.417000       1.00800           0
     32550 TIP3     3414     TIP3     OH2      OT      -0.834000       15.9994           0
     32551 TIP3     3414     TIP3     H1       HT       0.417000       1.00800           0
     32552 TIP3     3414     TIP3     H2       HT       0.417000       1.00800           0
     32553 TIP3     3415     TIP3     OH2      OT      -0.834000       15.9994           0
     32554 TIP3     3415     TIP3     H1       HT       0.417000       1.00800           0
     32555 TIP3     3415     TIP3     H2       HT       0.417000       1.00800           0
     32556 TIP3     3416     TIP3     OH2      OT      -0.834000       15.9994           0
     32557 TIP3     3416     TIP3     H1       HT       0.417000       1.00800           0
     32558 TIP3     3416     TIP3     H2       HT       0.417000       1.00800           0
     32559 TIP3     3417     TIP3     OH2      OT      -0.834000       15.9994           0
     32560 TIP3     3417     TIP3     H1       HT       0.417000       1.00800           0
     32561 TIP3     3417     TIP3     H2       HT       0.417000       1.00800           0
     32562 TIP3     3418     TIP3     OH2      OT      -0.834000       15.9994           0
     32563 TIP3     3418     TIP3     H1       HT       0.417000       1.00800           0
     32564 TIP3     3418     TIP3     H2       HT       0.417000       1.00800           0
     32565 TIP3     3419     TIP3     OH2      OT      -0.834000       15.9994           0
     32566 TIP3     3419     TIP3     H1       HT       0.417000       1.00800           0
     32567 TIP3     3419     TIP3     H2       HT       0.417000       1.00800           0
     32568 TIP3     3420     TIP3     OH2      OT      -0.834000       15.9994           0
     32569 TIP3     3420     TIP3     H1       HT       0.417000       1.00800           0
     32570 TIP3     3420     TIP3     H2       HT       0.417000       1.00800           0
     32571 TIP3     3421     TIP3     OH2      OT      -0.834000       15.9994           0
     32572 TIP3     3421     TIP3     H1       HT       0.417000       1.00800           0
     32573 TIP3     3421     TIP3     H2       HT       0.417000       1.00800           0
     32574 TIP3     3422     TIP3     OH2      OT      -0.834000       15.9994           0
     32575 TIP3     3422     TIP3     H1       HT       0.417000       1.00800           0
     32576 TIP3     3422     TIP3     H2       HT       0.417000       1.00800           0
     32577 TIP3     3423     TIP3     OH2      OT      -0.834000       15.9994           0
     32578 TIP3     3423     TIP3     H1       HT       0.417000       1.00800           0
     32579 TIP3     3423     TIP3     H2       HT       0.417000       1.00800           0
     32580 TIP3     3424     TIP3     OH2      OT      -0.834000       15.9994           0
     32581 TIP3     3424     TIP3     H1       HT       0.417000       1.00800           0
     32582 TIP3     3424     TIP3     H2       HT       0.417000       1.00800           0
     32583 TIP3     3425     TIP3     OH2      OT      -0.834000       15.9994           0
     32584 TIP3     3425     TIP3     H1       HT       0.417000       1.00800           0
     32585 TIP3     3425     TIP3     H2       HT       0.417000       1.00800           0
     32586 TIP3     3426     TIP3     OH2      OT      -0.834000       15.9994           0
     32587 TIP3     3426     TIP3     H1       HT       0.417000       1.00800           0
     32588 TIP3     3426     TIP3     H2       HT       0.417000       1.00800           0
     32589 TIP3     3427     TIP3     OH2      OT      -0.834000       15.9994           0
     32590 TIP3     3427     TIP3     H1       HT       0.417000       1.00800           0
     32591 TIP3     3427     TIP3     H2       HT       0.417000       1.00800           0
     32592 TIP3     3428     TIP3     OH2      OT      -0.834000       15.9994           0
     32593 TIP3     3428     TIP3     H1       HT       0.417000       1.00800           0
     32594 TIP3     3428     TIP3     H2       HT       0.417000       1.00800           0
     32595 TIP3     3429     TIP3     OH2      OT      -0.834000       15.9994           0
     32596 TIP3     3429     TIP3     H1       HT       0.417000       1.00800           0
     32597 TIP3     3429     TIP3     H2       HT       0.417000       1.00800           0
     32598 TIP3     3430     TIP3     OH2      OT      -0.834000       15.9994           0
     32599 TIP3     3430     TIP3     H1       HT       0.417000       1.00800           0
     32600 TIP3     3430     TIP3     H2       HT       0.417000       1.00800           0
     32601 TIP3     3431     TIP3     OH2      OT      -0.834000       15.9994           0
     32602 TIP3     3431     TIP3     H1       HT       0.417000       1.00800           0
     32603 TIP3     3431     TIP3     H2       HT       0.417000       1.00800           0
     32604 TIP3     3432     TIP3     OH2      OT      -0.834000       15.9994           0
     32605 TIP3     3432     TIP3     H1       HT       0.417000       1.00800           0
     32606 TIP3     3432     TIP3     H2       HT       0.417000       1.00800           0
     32607 TIP3     3433     TIP3     OH2      OT      -0.834000       15.9994           0
     32608 TIP3     3433     TIP3     H1       HT       0.417000       1.00800           0
     32609 TIP3     3433     TIP3     H2       HT       0.417000       1.00800           0
     32610 TIP3     3434     TIP3     OH2      OT      -0.834000       15.9994           0
     32611 TIP3     3434     TIP3     H1       HT       0.417000       1.00800           0
     32612 TIP3     3434     TIP3     H2       HT       0.417000       1.00800           0
     32613 TIP3     3435     TIP3     OH2      OT      -0.834000       15.9994           0
     32614 TIP3     3435     TIP3     H1       HT       0.417000       1.00800           0
     32615 TIP3     3435     TIP3     H2       HT       0.417000       1.00800           0
     32616 TIP3     3436     TIP3     OH2      OT      -0.834000       15.9994           0
     32617 TIP3     3436     TIP3     H1       HT       0.417000       1.00800           0
     32618 TIP3     3436     TIP3     H2       HT       0.417000       1.00800           0
     32619 TIP3     3437     TIP3     OH2      OT      -0.834000       15.9994           0
     32620 TIP3     3437     TIP3     H1       HT       0.417000       1.00800           0
     32621 TIP3     3437     TIP3     H2       HT       0.417000       1.00800           0
     32622 TIP3     3438     TIP3     OH2      OT      -0.834000       15.9994           0
     32623 TIP3     3438     TIP3     H1       HT       0.417000       1.00800           0
     32624 TIP3     3438     TIP3     H2       HT       0.417000       1.00800           0
     32625 TIP3     3439     TIP3     OH2      OT      -0.834000       15.9994           0
     32626 TIP3     3439     TIP3     H1       HT       0.417000       1.00800           0
     32627 TIP3     3439     TIP3     H2       HT       0.417000       1.00800           0
     32628 TIP3     3440     TIP3     OH2      OT      -0.834000       15.9994           0
     32629 TIP3     3440     TIP3     H1       HT       0.417000       1.00800           0
     32630 TIP3     3440     TIP3     H2       HT       0.417000       1.00800           0
     32631 TIP3     3441     TIP3     OH2      OT      -0.834000       15.9994           0
     32632 TIP3     3441     TIP3     H1       HT       0.417000       1.00800           0
     32633 TIP3     3441     TIP3     H2       HT       0.417000       1.00800           0
     32634 TIP3     3442     TIP3     OH2      OT      -0.834000       15.9994           0
     32635 TIP3     3442     TIP3     H1       HT       0.417000       1.00800           0
     32636 TIP3     3442     TIP3     H2       HT       0.417000       1.00800           0
     32637 TIP3     3443     TIP3     OH2      OT      -0.834000       15.9994           0
     32638 TIP3     3443     TIP3     H1       HT       0.417000       1.00800           0
     32639 TIP3     3443     TIP3     H2       HT       0.417000       1.00800           0
     32640 TIP3     3444     TIP3     OH2      OT      -0.834000       15.9994           0
     32641 TIP3     3444     TIP3     H1       HT       0.417000       1.00800           0
     32642 TIP3     3444     TIP3     H2       HT       0.417000       1.00800           0
     32643 TIP3     3445     TIP3     OH2      OT      -0.834000       15.9994           0
     32644 TIP3     3445     TIP3     H1       HT       0.417000       1.00800           0
     32645 TIP3     3445     TIP3     H2       HT       0.417000       1.00800           0
     32646 TIP3     3446     TIP3     OH2      OT      -0.834000       15.9994           0
     32647 TIP3     3446     TIP3     H1       HT       0.417000       1.00800           0
     32648 TIP3     3446     TIP3     H2       HT       0.417000       1.00800           0
     32649 TIP3     3447     TIP3     OH2      OT      -0.834000       15.9994           0
     32650 TIP3     3447     TIP3     H1       HT       0.417000       1.00800           0
     32651 TIP3     3447     TIP3     H2       HT       0.417000       1.00800           0
     32652 TIP3     3448     TIP3     OH2      OT      -0.834000       15.9994           0
     32653 TIP3     3448     TIP3     H1       HT       0.417000       1.00800           0
     32654 TIP3     3448     TIP3     H2       HT       0.417000       1.00800           0
     32655 TIP3     3449     TIP3     OH2      OT      -0.834000       15.9994           0
     32656 TIP3     3449     TIP3     H1       HT       0.417000       1.00800           0
     32657 TIP3     3449     TIP3     H2       HT       0.417000       1.00800           0
     32658 TIP3     3450     TIP3     OH2      OT      -0.834000       15.9994           0
     32659 TIP3     3450     TIP3     H1       HT       0.417000       1.00800           0
     32660 TIP3     3450     TIP3     H2       HT       0.417000       1.00800           0
     32661 TIP3     3451     TIP3     OH2      OT      -0.834000       15.9994           0
     32662 TIP3     3451     TIP3     H1       HT       0.417000       1.00800           0
     32663 TIP3     3451     TIP3     H2       HT       0.417000       1.00800           0
     32664 TIP3     3452     TIP3     OH2      OT      -0.834000       15.9994           0
     32665 TIP3     3452     TIP3     H1       HT       0.417000       1.00800           0
     32666 TIP3     3452     TIP3     H2       HT       0.417000       1.00800           0
     32667 TIP3     3453     TIP3     OH2      OT      -0.834000       15.9994           0
     32668 TIP3     3453     TIP3     H1       HT       0.417000       1.00800           0
     32669 TIP3     3453     TIP3     H2       HT       0.417000       1.00800           0
     32670 TIP3     3454     TIP3     OH2      OT      -0.834000       15.9994           0
     32671 TIP3     3454     TIP3     H1       HT       0.417000       1.00800           0
     32672 TIP3     3454     TIP3     H2       HT       0.417000       1.00800           0
     32673 TIP3     3455     TIP3     OH2      OT      -0.834000       15.9994           0
     32674 TIP3     3455     TIP3     H1       HT       0.417000       1.00800           0
     32675 TIP3     3455     TIP3     H2       HT       0.417000       1.00800           0
     32676 TIP3     3456     TIP3     OH2      OT      -0.834000       15.9994           0
     32677 TIP3     3456     TIP3     H1       HT       0.417000       1.00800           0
     32678 TIP3     3456     TIP3     H2       HT       0.417000       1.00800           0
     32679 TIP3     3457     TIP3     OH2      OT      -0.834000       15.9994           0
     32680 TIP3     3457     TIP3     H1       HT       0.417000       1.00800           0
     32681 TIP3     3457     TIP3     H2       HT       0.417000       1.00800           0
     32682 TIP3     3458     TIP3     OH2      OT      -0.834000       15.9994           0
     32683 TIP3     3458     TIP3     H1       HT       0.417000       1.00800           0
     32684 TIP3     3458     TIP3     H2       HT       0.417000       1.00800           0
     32685 TIP3     3459     TIP3     OH2      OT      -0.834000       15.9994           0
     32686 TIP3     3459     TIP3     H1       HT       0.417000       1.00800           0
     32687 TIP3     3459     TIP3     H2       HT       0.417000       1.00800           0
     32688 TIP3     3460     TIP3     OH2      OT      -0.834000       15.9994           0
     32689 TIP3     3460     TIP3     H1       HT       0.417000       1.00800           0
     32690 TIP3     3460     TIP3     H2       HT       0.417000       1.00800           0
     32691 TIP3     3461     TIP3     OH2      OT      -0.834000       15.9994           0
     32692 TIP3     3461     TIP3     H1       HT       0.417000       1.00800           0
     32693 TIP3     3461     TIP3     H2       HT       0.417000       1.00800           0
     32694 TIP3     3462     TIP3     OH2      OT      -0.834000       15.9994           0
     32695 TIP3     3462     TIP3     H1       HT       0.417000       1.00800           0
     32696 TIP3     3462     TIP3     H2       HT       0.417000       1.00800           0
     32697 TIP3     3463     TIP3     OH2      OT      -0.834000       15.9994           0
     32698 TIP3     3463     TIP3     H1       HT       0.417000       1.00800           0
     32699 TIP3     3463     TIP3     H2       HT       0.417000       1.00800           0
     32700 TIP3     3464     TIP3     OH2      OT      -0.834000       15.9994           0
     32701 TIP3     3464     TIP3     H1       HT       0.417000       1.00800           0
     32702 TIP3     3464     TIP3     H2       HT       0.417000       1.00800           0
     32703 TIP3     3465     TIP3     OH2      OT      -0.834000       15.9994           0
     32704 TIP3     3465     TIP3     H1       HT       0.417000       1.00800           0
     32705 TIP3     3465     TIP3     H2       HT       0.417000       1.00800           0
     32706 TIP3     3466     TIP3     OH2      OT      -0.834000       15.9994           0
     32707 TIP3     3466     TIP3     H1       HT       0.417000       1.00800           0
     32708 TIP3     3466     TIP3     H2       HT       0.417000       1.00800           0
     32709 TIP3     3467     TIP3     OH2      OT      -0.834000       15.9994           0
     32710 TIP3     3467     TIP3     H1       HT       0.417000       1.00800           0
     32711 TIP3     3467     TIP3     H2       HT       0.417000       1.00800           0
     32712 TIP3     3468     TIP3     OH2      OT      -0.834000       15.9994           0
     32713 TIP3     3468     TIP3     H1       HT       0.417000       1.00800           0
     32714 TIP3     3468     TIP3     H2       HT       0.417000       1.00800           0
     32715 TIP3     3469     TIP3     OH2      OT      -0.834000       15.9994           0
     32716 TIP3     3469     TIP3     H1       HT       0.417000       1.00800           0
     32717 TIP3     3469     TIP3     H2       HT       0.417000       1.00800           0
     32718 TIP3     3470     TIP3     OH2      OT      -0.834000       15.9994           0
     32719 TIP3     3470     TIP3     H1       HT       0.417000       1.00800           0
     32720 TIP3     3470     TIP3     H2       HT       0.417000       1.00800           0
     32721 TIP3     3471     TIP3     OH2      OT      -0.834000       15.9994           0
     32722 TIP3     3471     TIP3     H1       HT       0.417000       1.00800           0
     32723 TIP3     3471     TIP3     H2       HT       0.417000       1.00800           0
     32724 TIP3     3472     TIP3     OH2      OT      -0.834000       15.9994           0
     32725 TIP3     3472     TIP3     H1       HT       0.417000       1.00800           0
     32726 TIP3     3472     TIP3     H2       HT       0.417000       1.00800           0
     32727 TIP3     3473     TIP3     OH2      OT      -0.834000       15.9994           0
     32728 TIP3     3473     TIP3     H1       HT       0.417000       1.00800           0
     32729 TIP3     3473     TIP3     H2       HT       0.417000       1.00800           0
     32730 TIP3     3474     TIP3     OH2      OT      -0.834000       15.9994           0
     32731 TIP3     3474     TIP3     H1       HT       0.417000       1.00800           0
     32732 TIP3     3474     TIP3     H2       HT       0.417000       1.00800           0
     32733 TIP3     3475     TIP3     OH2      OT      -0.834000       15.9994           0
     32734 TIP3     3475     TIP3     H1       HT       0.417000       1.00800           0
     32735 TIP3     3475     TIP3     H2       HT       0.417000       1.00800           0
     32736 TIP3     3476     TIP3     OH2      OT      -0.834000       15.9994           0
     32737 TIP3     3476     TIP3     H1       HT       0.417000       1.00800           0
     32738 TIP3     3476     TIP3     H2       HT       0.417000       1.00800           0
     32739 TIP3     3477     TIP3     OH2      OT      -0.834000       15.9994           0
     32740 TIP3     3477     TIP3     H1       HT       0.417000       1.00800           0
     32741 TIP3     3477     TIP3     H2       HT       0.417000       1.00800           0
     32742 TIP3     3478     TIP3     OH2      OT      -0.834000       15.9994           0
     32743 TIP3     3478     TIP3     H1       HT       0.417000       1.00800           0
     32744 TIP3     3478     TIP3     H2       HT       0.417000       1.00800           0
     32745 TIP3     3479     TIP3     OH2      OT      -0.834000       15.9994           0
     32746 TIP3     3479     TIP3     H1       HT       0.417000       1.00800           0
     32747 TIP3     3479     TIP3     H2       HT       0.417000       1.00800           0
     32748 TIP3     3480     TIP3     OH2      OT      -0.834000       15.9994           0
     32749 TIP3     3480     TIP3     H1       HT       0.417000       1.00800           0
     32750 TIP3     3480     TIP3     H2       HT       0.417000       1.00800           0
     32751 TIP3     3481     TIP3     OH2      OT      -0.834000       15.9994           0
     32752 TIP3     3481     TIP3     H1       HT       0.417000       1.00800           0
     32753 TIP3     3481     TIP3     H2       HT       0.417000       1.00800           0
     32754 TIP3     3482     TIP3     OH2      OT      -0.834000       15.9994           0
     32755 TIP3     3482     TIP3     H1       HT       0.417000       1.00800           0
     32756 TIP3     3482     TIP3     H2       HT       0.417000       1.00800           0
     32757 TIP3     3483     TIP3     OH2      OT      -0.834000       15.9994           0
     32758 TIP3     3483     TIP3     H1       HT       0.417000       1.00800           0
     32759 TIP3     3483     TIP3     H2       HT       0.417000       1.00800           0
     32760 TIP3     3484     TIP3     OH2      OT      -0.834000       15.9994           0
     32761 TIP3     3484     TIP3     H1       HT       0.417000       1.00800           0
     32762 TIP3     3484     TIP3     H2       HT       0.417000       1.00800           0
     32763 TIP3     3485     TIP3     OH2      OT      -0.834000       15.9994           0
     32764 TIP3     3485     TIP3     H1       HT       0.417000       1.00800           0
     32765 TIP3     3485     TIP3     H2       HT       0.417000       1.00800           0
     32766 TIP3     3486     TIP3     OH2      OT      -0.834000       15.9994           0
     32767 TIP3     3486     TIP3     H1       HT       0.417000       1.00800           0
     32768 TIP3     3486     TIP3     H2       HT       0.417000       1.00800           0
     32769 TIP3     3487     TIP3     OH2      OT      -0.834000       15.9994           0
     32770 TIP3     3487     TIP3     H1       HT       0.417000       1.00800           0
     32771 TIP3     3487     TIP3     H2       HT       0.417000       1.00800           0
     32772 TIP3     3488     TIP3     OH2      OT      -0.834000       15.9994           0
     32773 TIP3     3488     TIP3     H1       HT       0.417000       1.00800           0
     32774 TIP3     3488     TIP3     H2       HT       0.417000       1.00800           0
     32775 TIP3     3489     TIP3     OH2      OT      -0.834000       15.9994           0
     32776 TIP3     3489     TIP3     H1       HT       0.417000       1.00800           0
     32777 TIP3     3489     TIP3     H2       HT       0.417000       1.00800           0
     32778 TIP3     3490     TIP3     OH2      OT      -0.834000       15.9994           0
     32779 TIP3     3490     TIP3     H1       HT       0.417000       1.00800           0
     32780 TIP3     3490     TIP3     H2       HT       0.417000       1.00800           0
     32781 TIP3     3491     TIP3     OH2      OT      -0.834000       15.9994           0
     32782 TIP3     3491     TIP3     H1       HT       0.417000       1.00800           0
     32783 TIP3     3491     TIP3     H2       HT       0.417000       1.00800           0
     32784 TIP3     3492     TIP3     OH2      OT      -0.834000       15.9994           0
     32785 TIP3     3492     TIP3     H1       HT       0.417000       1.00800           0
     32786 TIP3     3492     TIP3     H2       HT       0.417000       1.00800           0
     32787 TIP3     3493     TIP3     OH2      OT      -0.834000       15.9994           0
     32788 TIP3     3493     TIP3     H1       HT       0.417000       1.00800           0
     32789 TIP3     3493     TIP3     H2       HT       0.417000       1.00800           0
     32790 TIP3     3494     TIP3     OH2      OT      -0.834000       15.9994           0
     32791 TIP3     3494     TIP3     H1       HT       0.417000       1.00800           0
     32792 TIP3     3494     TIP3     H2       HT       0.417000       1.00800           0
     32793 TIP3     3495     TIP3     OH2      OT      -0.834000       15.9994           0
     32794 TIP3     3495     TIP3     H1       HT       0.417000       1.00800           0
     32795 TIP3     3495     TIP3     H2       HT       0.417000       1.00800           0
     32796 TIP3     3496     TIP3     OH2      OT      -0.834000       15.9994           0
     32797 TIP3     3496     TIP3     H1       HT       0.417000       1.00800           0
     32798 TIP3     3496     TIP3     H2       HT       0.417000       1.00800           0
     32799 TIP3     3497     TIP3     OH2      OT      -0.834000       15.9994           0
     32800 TIP3     3497     TIP3     H1       HT       0.417000       1.00800           0
     32801 TIP3     3497     TIP3     H2       HT       0.417000       1.00800           0
     32802 TIP3     3498     TIP3     OH2      OT      -0.834000       15.9994           0
     32803 TIP3     3498     TIP3     H1       HT       0.417000       1.00800           0
     32804 TIP3     3498     TIP3     H2       HT       0.417000       1.00800           0
     32805 TIP3     3499     TIP3     OH2      OT      -0.834000       15.9994           0
     32806 TIP3     3499     TIP3     H1       HT       0.417000       1.00800           0
     32807 TIP3     3499     TIP3     H2       HT       0.417000       1.00800           0
     32808 TIP3     3500     TIP3     OH2      OT      -0.834000       15.9994           0
     32809 TIP3     3500     TIP3     H1       HT       0.417000       1.00800           0
     32810 TIP3     3500     TIP3     H2       HT       0.417000       1.00800           0
     32811 TIP3     3501     TIP3     OH2      OT      -0.834000       15.9994           0
     32812 TIP3     3501     TIP3     H1       HT       0.417000       1.00800           0
     32813 TIP3     3501     TIP3     H2       HT       0.417000       1.00800           0
     32814 TIP3     3502     TIP3     OH2      OT      -0.834000       15.9994           0
     32815 TIP3     3502     TIP3     H1       HT       0.417000       1.00800           0
     32816 TIP3     3502     TIP3     H2       HT       0.417000       1.00800           0
     32817 TIP3     3503     TIP3     OH2      OT      -0.834000       15.9994           0
     32818 TIP3     3503     TIP3     H1       HT       0.417000       1.00800           0
     32819 TIP3     3503     TIP3     H2       HT       0.417000       1.00800           0
     32820 TIP3     3504     TIP3     OH2      OT      -0.834000       15.9994           0
     32821 TIP3     3504     TIP3     H1       HT       0.417000       1.00800           0
     32822 TIP3     3504     TIP3     H2       HT       0.417000       1.00800           0
     32823 TIP3     3505     TIP3     OH2      OT      -0.834000       15.9994           0
     32824 TIP3     3505     TIP3     H1       HT       0.417000       1.00800           0
     32825 TIP3     3505     TIP3     H2       HT       0.417000       1.00800           0
     32826 TIP3     3506     TIP3     OH2      OT      -0.834000       15.9994           0
     32827 TIP3     3506     TIP3     H1       HT       0.417000       1.00800           0
     32828 TIP3     3506     TIP3     H2       HT       0.417000       1.00800           0
     32829 TIP3     3507     TIP3     OH2      OT      -0.834000       15.9994           0
     32830 TIP3     3507     TIP3     H1       HT       0.417000       1.00800           0
     32831 TIP3     3507     TIP3     H2       HT       0.417000       1.00800           0
     32832 TIP3     3508     TIP3     OH2      OT      -0.834000       15.9994           0
     32833 TIP3     3508     TIP3     H1       HT       0.417000       1.00800           0
     32834 TIP3     3508     TIP3     H2       HT       0.417000       1.00800           0
     32835 TIP3     3509     TIP3     OH2      OT      -0.834000       15.9994           0
     32836 TIP3     3509     TIP3     H1       HT       0.417000       1.00800           0
     32837 TIP3     3509     TIP3     H2       HT       0.417000       1.00800           0
     32838 TIP3     3510     TIP3     OH2      OT      -0.834000       15.9994           0
     32839 TIP3     3510     TIP3     H1       HT       0.417000       1.00800           0
     32840 TIP3     3510     TIP3     H2       HT       0.417000       1.00800           0
     32841 TIP3     3511     TIP3     OH2      OT      -0.834000       15.9994           0
     32842 TIP3     3511     TIP3     H1       HT       0.417000       1.00800           0
     32843 TIP3     3511     TIP3     H2       HT       0.417000       1.00800           0
     32844 TIP3     3512     TIP3     OH2      OT      -0.834000       15.9994           0
     32845 TIP3     3512     TIP3     H1       HT       0.417000       1.00800           0
     32846 TIP3     3512     TIP3     H2       HT       0.417000       1.00800           0
     32847 TIP3     3513     TIP3     OH2      OT      -0.834000       15.9994           0
     32848 TIP3     3513     TIP3     H1       HT       0.417000       1.00800           0
     32849 TIP3     3513     TIP3     H2       HT       0.417000       1.00800           0
     32850 TIP3     3514     TIP3     OH2      OT      -0.834000       15.9994           0
     32851 TIP3     3514     TIP3     H1       HT       0.417000       1.00800           0
     32852 TIP3     3514     TIP3     H2       HT       0.417000       1.00800           0
     32853 TIP3     3515     TIP3     OH2      OT      -0.834000       15.9994           0
     32854 TIP3     3515     TIP3     H1       HT       0.417000       1.00800           0
     32855 TIP3     3515     TIP3     H2       HT       0.417000       1.00800           0
     32856 TIP3     3516     TIP3     OH2      OT      -0.834000       15.9994           0
     32857 TIP3     3516     TIP3     H1       HT       0.417000       1.00800           0
     32858 TIP3     3516     TIP3     H2       HT       0.417000       1.00800           0
     32859 TIP3     3517     TIP3     OH2      OT      -0.834000       15.9994           0
     32860 TIP3     3517     TIP3     H1       HT       0.417000       1.00800           0
     32861 TIP3     3517     TIP3     H2       HT       0.417000       1.00800           0
     32862 TIP3     3518     TIP3     OH2      OT      -0.834000       15.9994           0
     32863 TIP3     3518     TIP3     H1       HT       0.417000       1.00800           0
     32864 TIP3     3518     TIP3     H2       HT       0.417000       1.00800           0
     32865 TIP3     3519     TIP3     OH2      OT      -0.834000       15.9994           0
     32866 TIP3     3519     TIP3     H1       HT       0.417000       1.00800           0
     32867 TIP3     3519     TIP3     H2       HT       0.417000       1.00800           0
     32868 TIP3     3520     TIP3     OH2      OT      -0.834000       15.9994           0
     32869 TIP3     3520     TIP3     H1       HT       0.417000       1.00800           0
     32870 TIP3     3520     TIP3     H2       HT       0.417000       1.00800           0
     32871 TIP3     3521     TIP3     OH2      OT      -0.834000       15.9994           0
     32872 TIP3     3521     TIP3     H1       HT       0.417000       1.00800           0
     32873 TIP3     3521     TIP3     H2       HT       0.417000       1.00800           0
     32874 TIP3     3522     TIP3     OH2      OT      -0.834000       15.9994           0
     32875 TIP3     3522     TIP3     H1       HT       0.417000       1.00800           0
     32876 TIP3     3522     TIP3     H2       HT       0.417000       1.00800           0
     32877 TIP3     3523     TIP3     OH2      OT      -0.834000       15.9994           0
     32878 TIP3     3523     TIP3     H1       HT       0.417000       1.00800           0
     32879 TIP3     3523     TIP3     H2       HT       0.417000       1.00800           0
     32880 TIP3     3524     TIP3     OH2      OT      -0.834000       15.9994           0
     32881 TIP3     3524     TIP3     H1       HT       0.417000       1.00800           0
     32882 TIP3     3524     TIP3     H2       HT       0.417000       1.00800           0
     32883 TIP3     3525     TIP3     OH2      OT      -0.834000       15.9994           0
     32884 TIP3     3525     TIP3     H1       HT       0.417000       1.00800           0
     32885 TIP3     3525     TIP3     H2       HT       0.417000       1.00800           0
     32886 TIP3     3526     TIP3     OH2      OT      -0.834000       15.9994           0
     32887 TIP3     3526     TIP3     H1       HT       0.417000       1.00800           0
     32888 TIP3     3526     TIP3     H2       HT       0.417000       1.00800           0
     32889 TIP3     3527     TIP3     OH2      OT      -0.834000       15.9994           0
     32890 TIP3     3527     TIP3     H1       HT       0.417000       1.00800           0
     32891 TIP3     3527     TIP3     H2       HT       0.417000       1.00800           0
     32892 TIP3     3528     TIP3     OH2      OT      -0.834000       15.9994           0
     32893 TIP3     3528     TIP3     H1       HT       0.417000       1.00800           0
     32894 TIP3     3528     TIP3     H2       HT       0.417000       1.00800           0
     32895 TIP3     3529     TIP3     OH2      OT      -0.834000       15.9994           0
     32896 TIP3     3529     TIP3     H1       HT       0.417000       1.00800           0
     32897 TIP3     3529     TIP3     H2       HT       0.417000       1.00800           0
     32898 TIP3     3530     TIP3     OH2      OT      -0.834000       15.9994           0
     32899 TIP3     3530     TIP3     H1       HT       0.417000       1.00800           0
     32900 TIP3     3530     TIP3     H2       HT       0.417000       1.00800           0
     32901 TIP3     3531     TIP3     OH2      OT      -0.834000       15.9994           0
     32902 TIP3     3531     TIP3     H1       HT       0.417000       1.00800           0
     32903 TIP3     3531     TIP3     H2       HT       0.417000       1.00800           0
     32904 TIP3     3532     TIP3     OH2      OT      -0.834000       15.9994           0
     32905 TIP3     3532     TIP3     H1       HT       0.417000       1.00800           0
     32906 TIP3     3532     TIP3     H2       HT       0.417000       1.00800           0
     32907 TIP3     3533     TIP3     OH2      OT      -0.834000       15.9994           0
     32908 TIP3     3533     TIP3     H1       HT       0.417000       1.00800           0
     32909 TIP3     3533     TIP3     H2       HT       0.417000       1.00800           0
     32910 TIP3     3534     TIP3     OH2      OT      -0.834000       15.9994           0
     32911 TIP3     3534     TIP3     H1       HT       0.417000       1.00800           0
     32912 TIP3     3534     TIP3     H2       HT       0.417000       1.00800           0
     32913 TIP3     3535     TIP3     OH2      OT      -0.834000       15.9994           0
     32914 TIP3     3535     TIP3     H1       HT       0.417000       1.00800           0
     32915 TIP3     3535     TIP3     H2       HT       0.417000       1.00800           0
     32916 TIP3     3536     TIP3     OH2      OT      -0.834000       15.9994           0
     32917 TIP3     3536     TIP3     H1       HT       0.417000       1.00800           0
     32918 TIP3     3536     TIP3     H2       HT       0.417000       1.00800           0
     32919 TIP3     3537     TIP3     OH2      OT      -0.834000       15.9994           0
     32920 TIP3     3537     TIP3     H1       HT       0.417000       1.00800           0
     32921 TIP3     3537     TIP3     H2       HT       0.417000       1.00800           0
     32922 TIP3     3538     TIP3     OH2      OT      -0.834000       15.9994           0
     32923 TIP3     3538     TIP3     H1       HT       0.417000       1.00800           0
     32924 TIP3     3538     TIP3     H2       HT       0.417000       1.00800           0
     32925 TIP3     3539     TIP3     OH2      OT      -0.834000       15.9994           0
     32926 TIP3     3539     TIP3     H1       HT       0.417000       1.00800           0
     32927 TIP3     3539     TIP3     H2       HT       0.417000       1.00800           0
     32928 TIP3     3540     TIP3     OH2      OT      -0.834000       15.9994           0
     32929 TIP3     3540     TIP3     H1       HT       0.417000       1.00800           0
     32930 TIP3     3540     TIP3     H2       HT       0.417000       1.00800           0
     32931 TIP3     3541     TIP3     OH2      OT      -0.834000       15.9994           0
     32932 TIP3     3541     TIP3     H1       HT       0.417000       1.00800           0
     32933 TIP3     3541     TIP3     H2       HT       0.417000       1.00800           0
     32934 TIP3     3542     TIP3     OH2      OT      -0.834000       15.9994           0
     32935 TIP3     3542     TIP3     H1       HT       0.417000       1.00800           0
     32936 TIP3     3542     TIP3     H2       HT       0.417000       1.00800           0
     32937 TIP3     3543     TIP3     OH2      OT      -0.834000       15.9994           0
     32938 TIP3     3543     TIP3     H1       HT       0.417000       1.00800           0
     32939 TIP3     3543     TIP3     H2       HT       0.417000       1.00800           0
     32940 TIP3     3544     TIP3     OH2      OT      -0.834000       15.9994           0
     32941 TIP3     3544     TIP3     H1       HT       0.417000       1.00800           0
     32942 TIP3     3544     TIP3     H2       HT       0.417000       1.00800           0
     32943 TIP3     3545     TIP3     OH2      OT      -0.834000       15.9994           0
     32944 TIP3     3545     TIP3     H1       HT       0.417000       1.00800           0
     32945 TIP3     3545     TIP3     H2       HT       0.417000       1.00800           0
     32946 TIP3     3546     TIP3     OH2      OT      -0.834000       15.9994           0
     32947 TIP3     3546     TIP3     H1       HT       0.417000       1.00800           0
     32948 TIP3     3546     TIP3     H2       HT       0.417000       1.00800           0
     32949 TIP3     3547     TIP3     OH2      OT      -0.834000       15.9994           0
     32950 TIP3     3547     TIP3     H1       HT       0.417000       1.00800           0
     32951 TIP3     3547     TIP3     H2       HT       0.417000       1.00800           0
     32952 TIP3     3548     TIP3     OH2      OT      -0.834000       15.9994           0
     32953 TIP3     3548     TIP3     H1       HT       0.417000       1.00800           0
     32954 TIP3     3548     TIP3     H2       HT       0.417000       1.00800           0
     32955 TIP3     3549     TIP3     OH2      OT      -0.834000       15.9994           0
     32956 TIP3     3549     TIP3     H1       HT       0.417000       1.00800           0
     32957 TIP3     3549     TIP3     H2       HT       0.417000       1.00800           0
     32958 TIP3     3550     TIP3     OH2      OT      -0.834000       15.9994           0
     32959 TIP3     3550     TIP3     H1       HT       0.417000       1.00800           0
     32960 TIP3     3550     TIP3     H2       HT       0.417000       1.00800           0
     32961 TIP3     3551     TIP3     OH2      OT      -0.834000       15.9994           0
     32962 TIP3     3551     TIP3     H1       HT       0.417000       1.00800           0
     32963 TIP3     3551     TIP3     H2       HT       0.417000       1.00800           0
     32964 TIP3     3552     TIP3     OH2      OT      -0.834000       15.9994           0
     32965 TIP3     3552     TIP3     H1       HT       0.417000       1.00800           0
     32966 TIP3     3552     TIP3     H2       HT       0.417000       1.00800           0
     32967 TIP3     3553     TIP3     OH2      OT      -0.834000       15.9994           0
     32968 TIP3     3553     TIP3     H1       HT       0.417000       1.00800           0
     32969 TIP3     3553     TIP3     H2       HT       0.417000       1.00800           0
     32970 TIP3     3554     TIP3     OH2      OT      -0.834000       15.9994           0
     32971 TIP3     3554     TIP3     H1       HT       0.417000       1.00800           0
     32972 TIP3     3554     TIP3     H2       HT       0.417000       1.00800           0
     32973 TIP3     3555     TIP3     OH2      OT      -0.834000       15.9994           0
     32974 TIP3     3555     TIP3     H1       HT       0.417000       1.00800           0
     32975 TIP3     3555     TIP3     H2       HT       0.417000       1.00800           0
     32976 TIP3     3556     TIP3     OH2      OT      -0.834000       15.9994           0
     32977 TIP3     3556     TIP3     H1       HT       0.417000       1.00800           0
     32978 TIP3     3556     TIP3     H2       HT       0.417000       1.00800           0
     32979 TIP3     3557     TIP3     OH2      OT      -0.834000       15.9994           0
     32980 TIP3     3557     TIP3     H1       HT       0.417000       1.00800           0
     32981 TIP3     3557     TIP3     H2       HT       0.417000       1.00800           0
     32982 TIP3     3558     TIP3     OH2      OT      -0.834000       15.9994           0
     32983 TIP3     3558     TIP3     H1       HT       0.417000       1.00800           0
     32984 TIP3     3558     TIP3     H2       HT       0.417000       1.00800           0
     32985 TIP3     3559     TIP3     OH2      OT      -0.834000       15.9994           0
     32986 TIP3     3559     TIP3     H1       HT       0.417000       1.00800           0
     32987 TIP3     3559     TIP3     H2       HT       0.417000       1.00800           0
     32988 TIP3     3560     TIP3     OH2      OT      -0.834000       15.9994           0
     32989 TIP3     3560     TIP3     H1       HT       0.417000       1.00800           0
     32990 TIP3     3560     TIP3     H2       HT       0.417000       1.00800           0
     32991 TIP3     3561     TIP3     OH2      OT      -0.834000       15.9994           0
     32992 TIP3     3561     TIP3     H1       HT       0.417000       1.00800           0
     32993 TIP3     3561     TIP3     H2       HT       0.417000       1.00800           0
     32994 TIP3     3562     TIP3     OH2      OT      -0.834000       15.9994           0
     32995 TIP3     3562     TIP3     H1       HT       0.417000       1.00800           0
     32996 TIP3     3562     TIP3     H2       HT       0.417000       1.00800           0
     32997 TIP3     3563     TIP3     OH2      OT      -0.834000       15.9994           0
     32998 TIP3     3563     TIP3     H1       HT       0.417000       1.00800           0
     32999 TIP3     3563     TIP3     H2       HT       0.417000       1.00800           0
     33000 TIP3     3564     TIP3     OH2      OT      -0.834000       15.9994           0
     33001 TIP3     3564     TIP3     H1       HT       0.417000       1.00800           0
     33002 TIP3     3564     TIP3     H2       HT       0.417000       1.00800           0
     33003 TIP3     3565     TIP3     OH2      OT      -0.834000       15.9994           0
     33004 TIP3     3565     TIP3     H1       HT       0.417000       1.00800           0
     33005 TIP3     3565     TIP3     H2       HT       0.417000       1.00800           0
     33006 TIP3     3566     TIP3     OH2      OT      -0.834000       15.9994           0
     33007 TIP3     3566     TIP3     H1       HT       0.417000       1.00800           0
     33008 TIP3     3566     TIP3     H2       HT       0.417000       1.00800           0
     33009 TIP3     3567     TIP3     OH2      OT      -0.834000       15.9994           0
     33010 TIP3     3567     TIP3     H1       HT       0.417000       1.00800           0
     33011 TIP3     3567     TIP3     H2       HT       0.417000       1.00800           0
     33012 TIP3     3568     TIP3     OH2      OT      -0.834000       15.9994           0
     33013 TIP3     3568     TIP3     H1       HT       0.417000       1.00800           0
     33014 TIP3     3568     TIP3     H2       HT       0.417000       1.00800           0
     33015 TIP3     3569     TIP3     OH2      OT      -0.834000       15.9994           0
     33016 TIP3     3569     TIP3     H1       HT       0.417000       1.00800           0
     33017 TIP3     3569     TIP3     H2       HT       0.417000       1.00800           0
     33018 TIP3     3570     TIP3     OH2      OT      -0.834000       15.9994           0
     33019 TIP3     3570     TIP3     H1       HT       0.417000       1.00800           0
     33020 TIP3     3570     TIP3     H2       HT       0.417000       1.00800           0
     33021 TIP3     3571     TIP3     OH2      OT      -0.834000       15.9994           0
     33022 TIP3     3571     TIP3     H1       HT       0.417000       1.00800           0
     33023 TIP3     3571     TIP3     H2       HT       0.417000       1.00800           0
     33024 TIP3     3572     TIP3     OH2      OT      -0.834000       15.9994           0
     33025 TIP3     3572     TIP3     H1       HT       0.417000       1.00800           0
     33026 TIP3     3572     TIP3     H2       HT       0.417000       1.00800           0
     33027 TIP3     3573     TIP3     OH2      OT      -0.834000       15.9994           0
     33028 TIP3     3573     TIP3     H1       HT       0.417000       1.00800           0
     33029 TIP3     3573     TIP3     H2       HT       0.417000       1.00800           0
     33030 TIP3     3574     TIP3     OH2      OT      -0.834000       15.9994           0
     33031 TIP3     3574     TIP3     H1       HT       0.417000       1.00800           0
     33032 TIP3     3574     TIP3     H2       HT       0.417000       1.00800           0
     33033 TIP3     3575     TIP3     OH2      OT      -0.834000       15.9994           0
     33034 TIP3     3575     TIP3     H1       HT       0.417000       1.00800           0
     33035 TIP3     3575     TIP3     H2       HT       0.417000       1.00800           0
     33036 TIP3     3576     TIP3     OH2      OT      -0.834000       15.9994           0
     33037 TIP3     3576     TIP3     H1       HT       0.417000       1.00800           0
     33038 TIP3     3576     TIP3     H2       HT       0.417000       1.00800           0
     33039 TIP3     3577     TIP3     OH2      OT      -0.834000       15.9994           0
     33040 TIP3     3577     TIP3     H1       HT       0.417000       1.00800           0
     33041 TIP3     3577     TIP3     H2       HT       0.417000       1.00800           0
     33042 TIP3     3578     TIP3     OH2      OT      -0.834000       15.9994           0
     33043 TIP3     3578     TIP3     H1       HT       0.417000       1.00800           0
     33044 TIP3     3578     TIP3     H2       HT       0.417000       1.00800           0
     33045 TIP3     3579     TIP3     OH2      OT      -0.834000       15.9994           0
     33046 TIP3     3579     TIP3     H1       HT       0.417000       1.00800           0
     33047 TIP3     3579     TIP3     H2       HT       0.417000       1.00800           0
     33048 TIP3     3580     TIP3     OH2      OT      -0.834000       15.9994           0
     33049 TIP3     3580     TIP3     H1       HT       0.417000       1.00800           0
     33050 TIP3     3580     TIP3     H2       HT       0.417000       1.00800           0
     33051 TIP3     3581     TIP3     OH2      OT      -0.834000       15.9994           0
     33052 TIP3     3581     TIP3     H1       HT       0.417000       1.00800           0
     33053 TIP3     3581     TIP3     H2       HT       0.417000       1.00800           0
     33054 TIP3     3582     TIP3     OH2      OT      -0.834000       15.9994           0
     33055 TIP3     3582     TIP3     H1       HT       0.417000       1.00800           0
     33056 TIP3     3582     TIP3     H2       HT       0.417000       1.00800           0
     33057 TIP3     3583     TIP3     OH2      OT      -0.834000       15.9994           0
     33058 TIP3     3583     TIP3     H1       HT       0.417000       1.00800           0
     33059 TIP3     3583     TIP3     H2       HT       0.417000       1.00800           0
     33060 TIP3     3584     TIP3     OH2      OT      -0.834000       15.9994           0
     33061 TIP3     3584     TIP3     H1       HT       0.417000       1.00800           0
     33062 TIP3     3584     TIP3     H2       HT       0.417000       1.00800           0
     33063 TIP3     3585     TIP3     OH2      OT      -0.834000       15.9994           0
     33064 TIP3     3585     TIP3     H1       HT       0.417000       1.00800           0
     33065 TIP3     3585     TIP3     H2       HT       0.417000       1.00800           0
     33066 TIP3     3586     TIP3     OH2      OT      -0.834000       15.9994           0
     33067 TIP3     3586     TIP3     H1       HT       0.417000       1.00800           0
     33068 TIP3     3586     TIP3     H2       HT       0.417000       1.00800           0
     33069 TIP3     3587     TIP3     OH2      OT      -0.834000       15.9994           0
     33070 TIP3     3587     TIP3     H1       HT       0.417000       1.00800           0
     33071 TIP3     3587     TIP3     H2       HT       0.417000       1.00800           0
     33072 TIP3     3588     TIP3     OH2      OT      -0.834000       15.9994           0
     33073 TIP3     3588     TIP3     H1       HT       0.417000       1.00800           0
     33074 TIP3     3588     TIP3     H2       HT       0.417000       1.00800           0
     33075 TIP3     3589     TIP3     OH2      OT      -0.834000       15.9994           0
     33076 TIP3     3589     TIP3     H1       HT       0.417000       1.00800           0
     33077 TIP3     3589     TIP3     H2       HT       0.417000       1.00800           0
     33078 TIP3     3590     TIP3     OH2      OT      -0.834000       15.9994           0
     33079 TIP3     3590     TIP3     H1       HT       0.417000       1.00800           0
     33080 TIP3     3590     TIP3     H2       HT       0.417000       1.00800           0
     33081 TIP3     3591     TIP3     OH2      OT      -0.834000       15.9994           0
     33082 TIP3     3591     TIP3     H1       HT       0.417000       1.00800           0
     33083 TIP3     3591     TIP3     H2       HT       0.417000       1.00800           0
     33084 TIP3     3592     TIP3     OH2      OT      -0.834000       15.9994           0
     33085 TIP3     3592     TIP3     H1       HT       0.417000       1.00800           0
     33086 TIP3     3592     TIP3     H2       HT       0.417000       1.00800           0
     33087 TIP3     3593     TIP3     OH2      OT      -0.834000       15.9994           0
     33088 TIP3     3593     TIP3     H1       HT       0.417000       1.00800           0
     33089 TIP3     3593     TIP3     H2       HT       0.417000       1.00800           0
     33090 TIP3     3594     TIP3     OH2      OT      -0.834000       15.9994           0
     33091 TIP3     3594     TIP3     H1       HT       0.417000       1.00800           0
     33092 TIP3     3594     TIP3     H2       HT       0.417000       1.00800           0
     33093 TIP3     3595     TIP3     OH2      OT      -0.834000       15.9994           0
     33094 TIP3     3595     TIP3     H1       HT       0.417000       1.00800           0
     33095 TIP3     3595     TIP3     H2       HT       0.417000       1.00800           0
     33096 TIP3     3596     TIP3     OH2      OT      -0.834000       15.9994           0
     33097 TIP3     3596     TIP3     H1       HT       0.417000       1.00800           0
     33098 TIP3     3596     TIP3     H2       HT       0.417000       1.00800           0
     33099 TIP3     3597     TIP3     OH2      OT      -0.834000       15.9994           0
     33100 TIP3     3597     TIP3     H1       HT       0.417000       1.00800           0
     33101 TIP3     3597     TIP3     H2       HT       0.417000       1.00800           0
     33102 TIP3     3598     TIP3     OH2      OT      -0.834000       15.9994           0
     33103 TIP3     3598     TIP3     H1       HT       0.417000       1.00800           0
     33104 TIP3     3598     TIP3     H2       HT       0.417000       1.00800           0
     33105 TIP3     3599     TIP3     OH2      OT      -0.834000       15.9994           0
     33106 TIP3     3599     TIP3     H1       HT       0.417000       1.00800           0
     33107 TIP3     3599     TIP3     H2       HT       0.417000       1.00800           0
     33108 TIP3     3600     TIP3     OH2      OT      -0.834000       15.9994           0
     33109 TIP3     3600     TIP3     H1       HT       0.417000       1.00800           0
     33110 TIP3     3600     TIP3     H2       HT       0.417000       1.00800           0
     33111 TIP3     3601     TIP3     OH2      OT      -0.834000       15.9994           0
     33112 TIP3     3601     TIP3     H1       HT       0.417000       1.00800           0
     33113 TIP3     3601     TIP3     H2       HT       0.417000       1.00800           0
     33114 TIP3     3602     TIP3     OH2      OT      -0.834000       15.9994           0
     33115 TIP3     3602     TIP3     H1       HT       0.417000       1.00800           0
     33116 TIP3     3602     TIP3     H2       HT       0.417000       1.00800           0
     33117 TIP3     3603     TIP3     OH2      OT      -0.834000       15.9994           0
     33118 TIP3     3603     TIP3     H1       HT       0.417000       1.00800           0
     33119 TIP3     3603     TIP3     H2       HT       0.417000       1.00800           0
     33120 TIP3     3604     TIP3     OH2      OT      -0.834000       15.9994           0
     33121 TIP3     3604     TIP3     H1       HT       0.417000       1.00800           0
     33122 TIP3     3604     TIP3     H2       HT       0.417000       1.00800           0
     33123 TIP3     3605     TIP3     OH2      OT      -0.834000       15.9994           0
     33124 TIP3     3605     TIP3     H1       HT       0.417000       1.00800           0
     33125 TIP3     3605     TIP3     H2       HT       0.417000       1.00800           0
     33126 TIP3     3606     TIP3     OH2      OT      -0.834000       15.9994           0
     33127 TIP3     3606     TIP3     H1       HT       0.417000       1.00800           0
     33128 TIP3     3606     TIP3     H2       HT       0.417000       1.00800           0
     33129 TIP3     3607     TIP3     OH2      OT      -0.834000       15.9994           0
     33130 TIP3     3607     TIP3     H1       HT       0.417000       1.00800           0
     33131 TIP3     3607     TIP3     H2       HT       0.417000       1.00800           0
     33132 TIP3     3608     TIP3     OH2      OT      -0.834000       15.9994           0
     33133 TIP3     3608     TIP3     H1       HT       0.417000       1.00800           0
     33134 TIP3     3608     TIP3     H2       HT       0.417000       1.00800           0
     33135 TIP3     3609     TIP3     OH2      OT      -0.834000       15.9994           0
     33136 TIP3     3609     TIP3     H1       HT       0.417000       1.00800           0
     33137 TIP3     3609     TIP3     H2       HT       0.417000       1.00800           0
     33138 TIP3     3610     TIP3     OH2      OT      -0.834000       15.9994           0
     33139 TIP3     3610     TIP3     H1       HT       0.417000       1.00800           0
     33140 TIP3     3610     TIP3     H2       HT       0.417000       1.00800           0
     33141 TIP3     3611     TIP3     OH2      OT      -0.834000       15.9994           0
     33142 TIP3     3611     TIP3     H1       HT       0.417000       1.00800           0
     33143 TIP3     3611     TIP3     H2       HT       0.417000       1.00800           0
     33144 TIP3     3612     TIP3     OH2      OT      -0.834000       15.9994           0
     33145 TIP3     3612     TIP3     H1       HT       0.417000       1.00800           0
     33146 TIP3     3612     TIP3     H2       HT       0.417000       1.00800           0
     33147 TIP3     3613     TIP3     OH2      OT      -0.834000       15.9994           0
     33148 TIP3     3613     TIP3     H1       HT       0.417000       1.00800           0
     33149 TIP3     3613     TIP3     H2       HT       0.417000       1.00800           0
     33150 TIP3     3614     TIP3     OH2      OT      -0.834000       15.9994           0
     33151 TIP3     3614     TIP3     H1       HT       0.417000       1.00800           0
     33152 TIP3     3614     TIP3     H2       HT       0.417000       1.00800           0
     33153 TIP3     3615     TIP3     OH2      OT      -0.834000       15.9994           0
     33154 TIP3     3615     TIP3     H1       HT       0.417000       1.00800           0
     33155 TIP3     3615     TIP3     H2       HT       0.417000       1.00800           0
     33156 TIP3     3616     TIP3     OH2      OT      -0.834000       15.9994           0
     33157 TIP3     3616     TIP3     H1       HT       0.417000       1.00800           0
     33158 TIP3     3616     TIP3     H2       HT       0.417000       1.00800           0
     33159 TIP3     3617     TIP3     OH2      OT      -0.834000       15.9994           0
     33160 TIP3     3617     TIP3     H1       HT       0.417000       1.00800           0
     33161 TIP3     3617     TIP3     H2       HT       0.417000       1.00800           0
     33162 TIP3     3618     TIP3     OH2      OT      -0.834000       15.9994           0
     33163 TIP3     3618     TIP3     H1       HT       0.417000       1.00800           0
     33164 TIP3     3618     TIP3     H2       HT       0.417000       1.00800           0
     33165 TIP3     3619     TIP3     OH2      OT      -0.834000       15.9994           0
     33166 TIP3     3619     TIP3     H1       HT       0.417000       1.00800           0
     33167 TIP3     3619     TIP3     H2       HT       0.417000       1.00800           0
     33168 TIP3     3620     TIP3     OH2      OT      -0.834000       15.9994           0
     33169 TIP3     3620     TIP3     H1       HT       0.417000       1.00800           0
     33170 TIP3     3620     TIP3     H2       HT       0.417000       1.00800           0
     33171 TIP3     3621     TIP3     OH2      OT      -0.834000       15.9994           0
     33172 TIP3     3621     TIP3     H1       HT       0.417000       1.00800           0
     33173 TIP3     3621     TIP3     H2       HT       0.417000       1.00800           0
     33174 TIP3     3622     TIP3     OH2      OT      -0.834000       15.9994           0
     33175 TIP3     3622     TIP3     H1       HT       0.417000       1.00800           0
     33176 TIP3     3622     TIP3     H2       HT       0.417000       1.00800           0
     33177 TIP3     3623     TIP3     OH2      OT      -0.834000       15.9994           0
     33178 TIP3     3623     TIP3     H1       HT       0.417000       1.00800           0
     33179 TIP3     3623     TIP3     H2       HT       0.417000       1.00800           0
     33180 TIP3     3624     TIP3     OH2      OT      -0.834000       15.9994           0
     33181 TIP3     3624     TIP3     H1       HT       0.417000       1.00800           0
     33182 TIP3     3624     TIP3     H2       HT       0.417000       1.00800           0
     33183 TIP3     3625     TIP3     OH2      OT      -0.834000       15.9994           0
     33184 TIP3     3625     TIP3     H1       HT       0.417000       1.00800           0
     33185 TIP3     3625     TIP3     H2       HT       0.417000       1.00800           0
     33186 TIP3     3626     TIP3     OH2      OT      -0.834000       15.9994           0
     33187 TIP3     3626     TIP3     H1       HT       0.417000       1.00800           0
     33188 TIP3     3626     TIP3     H2       HT       0.417000       1.00800           0
     33189 TIP3     3627     TIP3     OH2      OT      -0.834000       15.9994           0
     33190 TIP3     3627     TIP3     H1       HT       0.417000       1.00800           0
     33191 TIP3     3627     TIP3     H2       HT       0.417000       1.00800           0
     33192 TIP3     3628     TIP3     OH2      OT      -0.834000       15.9994           0
     33193 TIP3     3628     TIP3     H1       HT       0.417000       1.00800           0
     33194 TIP3     3628     TIP3     H2       HT       0.417000       1.00800           0
     33195 TIP3     3629     TIP3     OH2      OT      -0.834000       15.9994           0
     33196 TIP3     3629     TIP3     H1       HT       0.417000       1.00800           0
     33197 TIP3     3629     TIP3     H2       HT       0.417000       1.00800           0
     33198 TIP3     3630     TIP3     OH2      OT      -0.834000       15.9994           0
     33199 TIP3     3630     TIP3     H1       HT       0.417000       1.00800           0
     33200 TIP3     3630     TIP3     H2       HT       0.417000       1.00800           0
     33201 TIP3     3631     TIP3     OH2      OT      -0.834000       15.9994           0
     33202 TIP3     3631     TIP3     H1       HT       0.417000       1.00800           0
     33203 TIP3     3631     TIP3     H2       HT       0.417000       1.00800           0
     33204 TIP3     3632     TIP3     OH2      OT      -0.834000       15.9994           0
     33205 TIP3     3632     TIP3     H1       HT       0.417000       1.00800           0
     33206 TIP3     3632     TIP3     H2       HT       0.417000       1.00800           0
     33207 TIP3     3633     TIP3     OH2      OT      -0.834000       15.9994           0
     33208 TIP3     3633     TIP3     H1       HT       0.417000       1.00800           0
     33209 TIP3     3633     TIP3     H2       HT       0.417000       1.00800           0
     33210 TIP3     3634     TIP3     OH2      OT      -0.834000       15.9994           0
     33211 TIP3     3634     TIP3     H1       HT       0.417000       1.00800           0
     33212 TIP3     3634     TIP3     H2       HT       0.417000       1.00800           0
     33213 TIP3     3635     TIP3     OH2      OT      -0.834000       15.9994           0
     33214 TIP3     3635     TIP3     H1       HT       0.417000       1.00800           0
     33215 TIP3     3635     TIP3     H2       HT       0.417000       1.00800           0
     33216 TIP3     3636     TIP3     OH2      OT      -0.834000       15.9994           0
     33217 TIP3     3636     TIP3     H1       HT       0.417000       1.00800           0
     33218 TIP3     3636     TIP3     H2       HT       0.417000       1.00800           0
     33219 TIP3     3637     TIP3     OH2      OT      -0.834000       15.9994           0
     33220 TIP3     3637     TIP3     H1       HT       0.417000       1.00800           0
     33221 TIP3     3637     TIP3     H2       HT       0.417000       1.00800           0
     33222 TIP3     3638     TIP3     OH2      OT      -0.834000       15.9994           0
     33223 TIP3     3638     TIP3     H1       HT       0.417000       1.00800           0
     33224 TIP3     3638     TIP3     H2       HT       0.417000       1.00800           0
     33225 TIP3     3639     TIP3     OH2      OT      -0.834000       15.9994           0
     33226 TIP3     3639     TIP3     H1       HT       0.417000       1.00800           0
     33227 TIP3     3639     TIP3     H2       HT       0.417000       1.00800           0
     33228 TIP3     3640     TIP3     OH2      OT      -0.834000       15.9994           0
     33229 TIP3     3640     TIP3     H1       HT       0.417000       1.00800           0
     33230 TIP3     3640     TIP3     H2       HT       0.417000       1.00800           0
     33231 TIP3     3641     TIP3     OH2      OT      -0.834000       15.9994           0
     33232 TIP3     3641     TIP3     H1       HT       0.417000       1.00800           0
     33233 TIP3     3641     TIP3     H2       HT       0.417000       1.00800           0
     33234 TIP3     3642     TIP3     OH2      OT      -0.834000       15.9994           0
     33235 TIP3     3642     TIP3     H1       HT       0.417000       1.00800           0
     33236 TIP3     3642     TIP3     H2       HT       0.417000       1.00800           0
     33237 TIP3     3643     TIP3     OH2      OT      -0.834000       15.9994           0
     33238 TIP3     3643     TIP3     H1       HT       0.417000       1.00800           0
     33239 TIP3     3643     TIP3     H2       HT       0.417000       1.00800           0
     33240 TIP3     3644     TIP3     OH2      OT      -0.834000       15.9994           0
     33241 TIP3     3644     TIP3     H1       HT       0.417000       1.00800           0
     33242 TIP3     3644     TIP3     H2       HT       0.417000       1.00800           0
     33243 TIP3     3645     TIP3     OH2      OT      -0.834000       15.9994           0
     33244 TIP3     3645     TIP3     H1       HT       0.417000       1.00800           0
     33245 TIP3     3645     TIP3     H2       HT       0.417000       1.00800           0
     33246 TIP3     3646     TIP3     OH2      OT      -0.834000       15.9994           0
     33247 TIP3     3646     TIP3     H1       HT       0.417000       1.00800           0
     33248 TIP3     3646     TIP3     H2       HT       0.417000       1.00800           0
     33249 TIP3     3647     TIP3     OH2      OT      -0.834000       15.9994           0
     33250 TIP3     3647     TIP3     H1       HT       0.417000       1.00800           0
     33251 TIP3     3647     TIP3     H2       HT       0.417000       1.00800           0
     33252 TIP3     3648     TIP3     OH2      OT      -0.834000       15.9994           0
     33253 TIP3     3648     TIP3     H1       HT       0.417000       1.00800           0
     33254 TIP3     3648     TIP3     H2       HT       0.417000       1.00800           0
     33255 TIP3     3649     TIP3     OH2      OT      -0.834000       15.9994           0
     33256 TIP3     3649     TIP3     H1       HT       0.417000       1.00800           0
     33257 TIP3     3649     TIP3     H2       HT       0.417000       1.00800           0
     33258 TIP3     3650     TIP3     OH2      OT      -0.834000       15.9994           0
     33259 TIP3     3650     TIP3     H1       HT       0.417000       1.00800           0
     33260 TIP3     3650     TIP3     H2       HT       0.417000       1.00800           0
     33261 TIP3     3651     TIP3     OH2      OT      -0.834000       15.9994           0
     33262 TIP3     3651     TIP3     H1       HT       0.417000       1.00800           0
     33263 TIP3     3651     TIP3     H2       HT       0.417000       1.00800           0
     33264 TIP3     3652     TIP3     OH2      OT      -0.834000       15.9994           0
     33265 TIP3     3652     TIP3     H1       HT       0.417000       1.00800           0
     33266 TIP3     3652     TIP3     H2       HT       0.417000       1.00800           0
     33267 TIP3     3653     TIP3     OH2      OT      -0.834000       15.9994           0
     33268 TIP3     3653     TIP3     H1       HT       0.417000       1.00800           0
     33269 TIP3     3653     TIP3     H2       HT       0.417000       1.00800           0
     33270 TIP3     3654     TIP3     OH2      OT      -0.834000       15.9994           0
     33271 TIP3     3654     TIP3     H1       HT       0.417000       1.00800           0
     33272 TIP3     3654     TIP3     H2       HT       0.417000       1.00800           0
     33273 TIP3     3655     TIP3     OH2      OT      -0.834000       15.9994           0
     33274 TIP3     3655     TIP3     H1       HT       0.417000       1.00800           0
     33275 TIP3     3655     TIP3     H2       HT       0.417000       1.00800           0
     33276 TIP3     3656     TIP3     OH2      OT      -0.834000       15.9994           0
     33277 TIP3     3656     TIP3     H1       HT       0.417000       1.00800           0
     33278 TIP3     3656     TIP3     H2       HT       0.417000       1.00800           0
     33279 TIP3     3657     TIP3     OH2      OT      -0.834000       15.9994           0
     33280 TIP3     3657     TIP3     H1       HT       0.417000       1.00800           0
     33281 TIP3     3657     TIP3     H2       HT       0.417000       1.00800           0
     33282 TIP3     3658     TIP3     OH2      OT      -0.834000       15.9994           0
     33283 TIP3     3658     TIP3     H1       HT       0.417000       1.00800           0
     33284 TIP3     3658     TIP3     H2       HT       0.417000       1.00800           0
     33285 TIP3     3659     TIP3     OH2      OT      -0.834000       15.9994           0
     33286 TIP3     3659     TIP3     H1       HT       0.417000       1.00800           0
     33287 TIP3     3659     TIP3     H2       HT       0.417000       1.00800           0
     33288 TIP3     3660     TIP3     OH2      OT      -0.834000       15.9994           0
     33289 TIP3     3660     TIP3     H1       HT       0.417000       1.00800           0
     33290 TIP3     3660     TIP3     H2       HT       0.417000       1.00800           0
     33291 TIP3     3661     TIP3     OH2      OT      -0.834000       15.9994           0
     33292 TIP3     3661     TIP3     H1       HT       0.417000       1.00800           0
     33293 TIP3     3661     TIP3     H2       HT       0.417000       1.00800           0
     33294 TIP3     3662     TIP3     OH2      OT      -0.834000       15.9994           0
     33295 TIP3     3662     TIP3     H1       HT       0.417000       1.00800           0
     33296 TIP3     3662     TIP3     H2       HT       0.417000       1.00800           0
     33297 TIP3     3663     TIP3     OH2      OT      -0.834000       15.9994           0
     33298 TIP3     3663     TIP3     H1       HT       0.417000       1.00800           0
     33299 TIP3     3663     TIP3     H2       HT       0.417000       1.00800           0
     33300 TIP3     3664     TIP3     OH2      OT      -0.834000       15.9994           0
     33301 TIP3     3664     TIP3     H1       HT       0.417000       1.00800           0
     33302 TIP3     3664     TIP3     H2       HT       0.417000       1.00800           0
     33303 TIP3     3665     TIP3     OH2      OT      -0.834000       15.9994           0
     33304 TIP3     3665     TIP3     H1       HT       0.417000       1.00800           0
     33305 TIP3     3665     TIP3     H2       HT       0.417000       1.00800           0
     33306 TIP3     3666     TIP3     OH2      OT      -0.834000       15.9994           0
     33307 TIP3     3666     TIP3     H1       HT       0.417000       1.00800           0
     33308 TIP3     3666     TIP3     H2       HT       0.417000       1.00800           0
     33309 TIP3     3667     TIP3     OH2      OT      -0.834000       15.9994           0
     33310 TIP3     3667     TIP3     H1       HT       0.417000       1.00800           0
     33311 TIP3     3667     TIP3     H2       HT       0.417000       1.00800           0
     33312 TIP3     3668     TIP3     OH2      OT      -0.834000       15.9994           0
     33313 TIP3     3668     TIP3     H1       HT       0.417000       1.00800           0
     33314 TIP3     3668     TIP3     H2       HT       0.417000       1.00800           0
     33315 TIP3     3669     TIP3     OH2      OT      -0.834000       15.9994           0
     33316 TIP3     3669     TIP3     H1       HT       0.417000       1.00800           0
     33317 TIP3     3669     TIP3     H2       HT       0.417000       1.00800           0
     33318 TIP3     3670     TIP3     OH2      OT      -0.834000       15.9994           0
     33319 TIP3     3670     TIP3     H1       HT       0.417000       1.00800           0
     33320 TIP3     3670     TIP3     H2       HT       0.417000       1.00800           0
     33321 TIP3     3671     TIP3     OH2      OT      -0.834000       15.9994           0
     33322 TIP3     3671     TIP3     H1       HT       0.417000       1.00800           0
     33323 TIP3     3671     TIP3     H2       HT       0.417000       1.00800           0
     33324 TIP3     3672     TIP3     OH2      OT      -0.834000       15.9994           0
     33325 TIP3     3672     TIP3     H1       HT       0.417000       1.00800           0
     33326 TIP3     3672     TIP3     H2       HT       0.417000       1.00800           0
     33327 TIP3     3673     TIP3     OH2      OT      -0.834000       15.9994           0
     33328 TIP3     3673     TIP3     H1       HT       0.417000       1.00800           0
     33329 TIP3     3673     TIP3     H2       HT       0.417000       1.00800           0
     33330 TIP3     3674     TIP3     OH2      OT      -0.834000       15.9994           0
     33331 TIP3     3674     TIP3     H1       HT       0.417000       1.00800           0
     33332 TIP3     3674     TIP3     H2       HT       0.417000       1.00800           0
     33333 TIP3     3675     TIP3     OH2      OT      -0.834000       15.9994           0
     33334 TIP3     3675     TIP3     H1       HT       0.417000       1.00800           0
     33335 TIP3     3675     TIP3     H2       HT       0.417000       1.00800           0
     33336 TIP3     3676     TIP3     OH2      OT      -0.834000       15.9994           0
     33337 TIP3     3676     TIP3     H1       HT       0.417000       1.00800           0
     33338 TIP3     3676     TIP3     H2       HT       0.417000       1.00800           0
     33339 TIP3     3677     TIP3     OH2      OT      -0.834000       15.9994           0
     33340 TIP3     3677     TIP3     H1       HT       0.417000       1.00800           0
     33341 TIP3     3677     TIP3     H2       HT       0.417000       1.00800           0
     33342 TIP3     3678     TIP3     OH2      OT      -0.834000       15.9994           0
     33343 TIP3     3678     TIP3     H1       HT       0.417000       1.00800           0
     33344 TIP3     3678     TIP3     H2       HT       0.417000       1.00800           0
     33345 TIP3     3679     TIP3     OH2      OT      -0.834000       15.9994           0
     33346 TIP3     3679     TIP3     H1       HT       0.417000       1.00800           0
     33347 TIP3     3679     TIP3     H2       HT       0.417000       1.00800           0
     33348 TIP3     3680     TIP3     OH2      OT      -0.834000       15.9994           0
     33349 TIP3     3680     TIP3     H1       HT       0.417000       1.00800           0
     33350 TIP3     3680     TIP3     H2       HT       0.417000       1.00800           0
     33351 TIP3     3681     TIP3     OH2      OT      -0.834000       15.9994           0
     33352 TIP3     3681     TIP3     H1       HT       0.417000       1.00800           0
     33353 TIP3     3681     TIP3     H2       HT       0.417000       1.00800           0
     33354 TIP3     3682     TIP3     OH2      OT      -0.834000       15.9994           0
     33355 TIP3     3682     TIP3     H1       HT       0.417000       1.00800           0
     33356 TIP3     3682     TIP3     H2       HT       0.417000       1.00800           0
     33357 TIP3     3683     TIP3     OH2      OT      -0.834000       15.9994           0
     33358 TIP3     3683     TIP3     H1       HT       0.417000       1.00800           0
     33359 TIP3     3683     TIP3     H2       HT       0.417000       1.00800           0
     33360 TIP3     3684     TIP3     OH2      OT      -0.834000       15.9994           0
     33361 TIP3     3684     TIP3     H1       HT       0.417000       1.00800           0
     33362 TIP3     3684     TIP3     H2       HT       0.417000       1.00800           0
     33363 TIP3     3685     TIP3     OH2      OT      -0.834000       15.9994           0
     33364 TIP3     3685     TIP3     H1       HT       0.417000       1.00800           0
     33365 TIP3     3685     TIP3     H2       HT       0.417000       1.00800           0
     33366 TIP3     3686     TIP3     OH2      OT      -0.834000       15.9994           0
     33367 TIP3     3686     TIP3     H1       HT       0.417000       1.00800           0
     33368 TIP3     3686     TIP3     H2       HT       0.417000       1.00800           0
     33369 TIP3     3687     TIP3     OH2      OT      -0.834000       15.9994           0
     33370 TIP3     3687     TIP3     H1       HT       0.417000       1.00800           0
     33371 TIP3     3687     TIP3     H2       HT       0.417000       1.00800           0
     33372 TIP3     3688     TIP3     OH2      OT      -0.834000       15.9994           0
     33373 TIP3     3688     TIP3     H1       HT       0.417000       1.00800           0
     33374 TIP3     3688     TIP3     H2       HT       0.417000       1.00800           0
     33375 TIP3     3689     TIP3     OH2      OT      -0.834000       15.9994           0
     33376 TIP3     3689     TIP3     H1       HT       0.417000       1.00800           0
     33377 TIP3     3689     TIP3     H2       HT       0.417000       1.00800           0
     33378 TIP3     3690     TIP3     OH2      OT      -0.834000       15.9994           0
     33379 TIP3     3690     TIP3     H1       HT       0.417000       1.00800           0
     33380 TIP3     3690     TIP3     H2       HT       0.417000       1.00800           0
     33381 TIP3     3691     TIP3     OH2      OT      -0.834000       15.9994           0
     33382 TIP3     3691     TIP3     H1       HT       0.417000       1.00800           0
     33383 TIP3     3691     TIP3     H2       HT       0.417000       1.00800           0
     33384 TIP3     3692     TIP3     OH2      OT      -0.834000       15.9994           0
     33385 TIP3     3692     TIP3     H1       HT       0.417000       1.00800           0
     33386 TIP3     3692     TIP3     H2       HT       0.417000       1.00800           0
     33387 TIP3     3693     TIP3     OH2      OT      -0.834000       15.9994           0
     33388 TIP3     3693     TIP3     H1       HT       0.417000       1.00800           0
     33389 TIP3     3693     TIP3     H2       HT       0.417000       1.00800           0
     33390 TIP3     3694     TIP3     OH2      OT      -0.834000       15.9994           0
     33391 TIP3     3694     TIP3     H1       HT       0.417000       1.00800           0
     33392 TIP3     3694     TIP3     H2       HT       0.417000       1.00800           0
     33393 TIP3     3695     TIP3     OH2      OT      -0.834000       15.9994           0
     33394 TIP3     3695     TIP3     H1       HT       0.417000       1.00800           0
     33395 TIP3     3695     TIP3     H2       HT       0.417000       1.00800           0
     33396 TIP3     3696     TIP3     OH2      OT      -0.834000       15.9994           0
     33397 TIP3     3696     TIP3     H1       HT       0.417000       1.00800           0
     33398 TIP3     3696     TIP3     H2       HT       0.417000       1.00800           0
     33399 TIP3     3697     TIP3     OH2      OT      -0.834000       15.9994           0
     33400 TIP3     3697     TIP3     H1       HT       0.417000       1.00800           0
     33401 TIP3     3697     TIP3     H2       HT       0.417000       1.00800           0
     33402 TIP3     3698     TIP3     OH2      OT      -0.834000       15.9994           0
     33403 TIP3     3698     TIP3     H1       HT       0.417000       1.00800           0
     33404 TIP3     3698     TIP3     H2       HT       0.417000       1.00800           0
     33405 TIP3     3699     TIP3     OH2      OT      -0.834000       15.9994           0
     33406 TIP3     3699     TIP3     H1       HT       0.417000       1.00800           0
     33407 TIP3     3699     TIP3     H2       HT       0.417000       1.00800           0
     33408 TIP3     3700     TIP3     OH2      OT      -0.834000       15.9994           0
     33409 TIP3     3700     TIP3     H1       HT       0.417000       1.00800           0
     33410 TIP3     3700     TIP3     H2       HT       0.417000       1.00800           0
     33411 TIP3     3701     TIP3     OH2      OT      -0.834000       15.9994           0
     33412 TIP3     3701     TIP3     H1       HT       0.417000       1.00800           0
     33413 TIP3     3701     TIP3     H2       HT       0.417000       1.00800           0
     33414 TIP3     3702     TIP3     OH2      OT      -0.834000       15.9994           0
     33415 TIP3     3702     TIP3     H1       HT       0.417000       1.00800           0
     33416 TIP3     3702     TIP3     H2       HT       0.417000       1.00800           0
     33417 TIP3     3703     TIP3     OH2      OT      -0.834000       15.9994           0
     33418 TIP3     3703     TIP3     H1       HT       0.417000       1.00800           0
     33419 TIP3     3703     TIP3     H2       HT       0.417000       1.00800           0
     33420 TIP3     3704     TIP3     OH2      OT      -0.834000       15.9994           0
     33421 TIP3     3704     TIP3     H1       HT       0.417000       1.00800           0
     33422 TIP3     3704     TIP3     H2       HT       0.417000       1.00800           0
     33423 TIP3     3705     TIP3     OH2      OT      -0.834000       15.9994           0
     33424 TIP3     3705     TIP3     H1       HT       0.417000       1.00800           0
     33425 TIP3     3705     TIP3     H2       HT       0.417000       1.00800           0
     33426 TIP3     3706     TIP3     OH2      OT      -0.834000       15.9994           0
     33427 TIP3     3706     TIP3     H1       HT       0.417000       1.00800           0
     33428 TIP3     3706     TIP3     H2       HT       0.417000       1.00800           0
     33429 TIP3     3707     TIP3     OH2      OT      -0.834000       15.9994           0
     33430 TIP3     3707     TIP3     H1       HT       0.417000       1.00800           0
     33431 TIP3     3707     TIP3     H2       HT       0.417000       1.00800           0
     33432 TIP3     3708     TIP3     OH2      OT      -0.834000       15.9994           0
     33433 TIP3     3708     TIP3     H1       HT       0.417000       1.00800           0
     33434 TIP3     3708     TIP3     H2       HT       0.417000       1.00800           0
     33435 TIP3     3709     TIP3     OH2      OT      -0.834000       15.9994           0
     33436 TIP3     3709     TIP3     H1       HT       0.417000       1.00800           0
     33437 TIP3     3709     TIP3     H2       HT       0.417000       1.00800           0
     33438 TIP3     3710     TIP3     OH2      OT      -0.834000       15.9994           0
     33439 TIP3     3710     TIP3     H1       HT       0.417000       1.00800           0
     33440 TIP3     3710     TIP3     H2       HT       0.417000       1.00800           0
     33441 TIP3     3711     TIP3     OH2      OT      -0.834000       15.9994           0
     33442 TIP3     3711     TIP3     H1       HT       0.417000       1.00800           0
     33443 TIP3     3711     TIP3     H2       HT       0.417000       1.00800           0
     33444 TIP3     3712     TIP3     OH2      OT      -0.834000       15.9994           0
     33445 TIP3     3712     TIP3     H1       HT       0.417000       1.00800           0
     33446 TIP3     3712     TIP3     H2       HT       0.417000       1.00800           0
     33447 TIP3     3713     TIP3     OH2      OT      -0.834000       15.9994           0
     33448 TIP3     3713     TIP3     H1       HT       0.417000       1.00800           0
     33449 TIP3     3713     TIP3     H2       HT       0.417000       1.00800           0
     33450 TIP3     3714     TIP3     OH2      OT      -0.834000       15.9994           0
     33451 TIP3     3714     TIP3     H1       HT       0.417000       1.00800           0
     33452 TIP3     3714     TIP3     H2       HT       0.417000       1.00800           0
     33453 TIP3     3715     TIP3     OH2      OT      -0.834000       15.9994           0
     33454 TIP3     3715     TIP3     H1       HT       0.417000       1.00800           0
     33455 TIP3     3715     TIP3     H2       HT       0.417000       1.00800           0
     33456 TIP3     3716     TIP3     OH2      OT      -0.834000       15.9994           0
     33457 TIP3     3716     TIP3     H1       HT       0.417000       1.00800           0
     33458 TIP3     3716     TIP3     H2       HT       0.417000       1.00800           0
     33459 TIP3     3717     TIP3     OH2      OT      -0.834000       15.9994           0
     33460 TIP3     3717     TIP3     H1       HT       0.417000       1.00800           0
     33461 TIP3     3717     TIP3     H2       HT       0.417000       1.00800           0
     33462 TIP3     3718     TIP3     OH2      OT      -0.834000       15.9994           0
     33463 TIP3     3718     TIP3     H1       HT       0.417000       1.00800           0
     33464 TIP3     3718     TIP3     H2       HT       0.417000       1.00800           0
     33465 TIP3     3719     TIP3     OH2      OT      -0.834000       15.9994           0
     33466 TIP3     3719     TIP3     H1       HT       0.417000       1.00800           0
     33467 TIP3     3719     TIP3     H2       HT       0.417000       1.00800           0
     33468 TIP3     3720     TIP3     OH2      OT      -0.834000       15.9994           0
     33469 TIP3     3720     TIP3     H1       HT       0.417000       1.00800           0
     33470 TIP3     3720     TIP3     H2       HT       0.417000       1.00800           0
     33471 TIP3     3721     TIP3     OH2      OT      -0.834000       15.9994           0
     33472 TIP3     3721     TIP3     H1       HT       0.417000       1.00800           0
     33473 TIP3     3721     TIP3     H2       HT       0.417000       1.00800           0
     33474 TIP3     3722     TIP3     OH2      OT      -0.834000       15.9994           0
     33475 TIP3     3722     TIP3     H1       HT       0.417000       1.00800           0
     33476 TIP3     3722     TIP3     H2       HT       0.417000       1.00800           0
     33477 TIP3     3723     TIP3     OH2      OT      -0.834000       15.9994           0
     33478 TIP3     3723     TIP3     H1       HT       0.417000       1.00800           0
     33479 TIP3     3723     TIP3     H2       HT       0.417000       1.00800           0
     33480 TIP3     3724     TIP3     OH2      OT      -0.834000       15.9994           0
     33481 TIP3     3724     TIP3     H1       HT       0.417000       1.00800           0
     33482 TIP3     3724     TIP3     H2       HT       0.417000       1.00800           0
     33483 TIP3     3725     TIP3     OH2      OT      -0.834000       15.9994           0
     33484 TIP3     3725     TIP3     H1       HT       0.417000       1.00800           0
     33485 TIP3     3725     TIP3     H2       HT       0.417000       1.00800           0
     33486 TIP3     3726     TIP3     OH2      OT      -0.834000       15.9994           0
     33487 TIP3     3726     TIP3     H1       HT       0.417000       1.00800           0
     33488 TIP3     3726     TIP3     H2       HT       0.417000       1.00800           0
     33489 TIP3     3727     TIP3     OH2      OT      -0.834000       15.9994           0
     33490 TIP3     3727     TIP3     H1       HT       0.417000       1.00800           0
     33491 TIP3     3727     TIP3     H2       HT       0.417000       1.00800           0
     33492 TIP3     3728     TIP3     OH2      OT      -0.834000       15.9994           0
     33493 TIP3     3728     TIP3     H1       HT       0.417000       1.00800           0
     33494 TIP3     3728     TIP3     H2       HT       0.417000       1.00800           0
     33495 TIP3     3729     TIP3     OH2      OT      -0.834000       15.9994           0
     33496 TIP3     3729     TIP3     H1       HT       0.417000       1.00800           0
     33497 TIP3     3729     TIP3     H2       HT       0.417000       1.00800           0
     33498 TIP3     3730     TIP3     OH2      OT      -0.834000       15.9994           0
     33499 TIP3     3730     TIP3     H1       HT       0.417000       1.00800           0
     33500 TIP3     3730     TIP3     H2       HT       0.417000       1.00800           0
     33501 TIP3     3731     TIP3     OH2      OT      -0.834000       15.9994           0
     33502 TIP3     3731     TIP3     H1       HT       0.417000       1.00800           0
     33503 TIP3     3731     TIP3     H2       HT       0.417000       1.00800           0
     33504 TIP3     3732     TIP3     OH2      OT      -0.834000       15.9994           0
     33505 TIP3     3732     TIP3     H1       HT       0.417000       1.00800           0
     33506 TIP3     3732     TIP3     H2       HT       0.417000       1.00800           0
     33507 TIP3     3733     TIP3     OH2      OT      -0.834000       15.9994           0
     33508 TIP3     3733     TIP3     H1       HT       0.417000       1.00800           0
     33509 TIP3     3733     TIP3     H2       HT       0.417000       1.00800           0
     33510 TIP3     3734     TIP3     OH2      OT      -0.834000       15.9994           0
     33511 TIP3     3734     TIP3     H1       HT       0.417000       1.00800           0
     33512 TIP3     3734     TIP3     H2       HT       0.417000       1.00800           0
     33513 TIP3     3735     TIP3     OH2      OT      -0.834000       15.9994           0
     33514 TIP3     3735     TIP3     H1       HT       0.417000       1.00800           0
     33515 TIP3     3735     TIP3     H2       HT       0.417000       1.00800           0
     33516 TIP3     3736     TIP3     OH2      OT      -0.834000       15.9994           0
     33517 TIP3     3736     TIP3     H1       HT       0.417000       1.00800           0
     33518 TIP3     3736     TIP3     H2       HT       0.417000       1.00800           0
     33519 TIP3     3737     TIP3     OH2      OT      -0.834000       15.9994           0
     33520 TIP3     3737     TIP3     H1       HT       0.417000       1.00800           0
     33521 TIP3     3737     TIP3     H2       HT       0.417000       1.00800           0
     33522 TIP3     3738     TIP3     OH2      OT      -0.834000       15.9994           0
     33523 TIP3     3738     TIP3     H1       HT       0.417000       1.00800           0
     33524 TIP3     3738     TIP3     H2       HT       0.417000       1.00800           0
     33525 TIP3     3739     TIP3     OH2      OT      -0.834000       15.9994           0
     33526 TIP3     3739     TIP3     H1       HT       0.417000       1.00800           0
     33527 TIP3     3739     TIP3     H2       HT       0.417000       1.00800           0
     33528 TIP3     3740     TIP3     OH2      OT      -0.834000       15.9994           0
     33529 TIP3     3740     TIP3     H1       HT       0.417000       1.00800           0
     33530 TIP3     3740     TIP3     H2       HT       0.417000       1.00800           0
     33531 TIP3     3741     TIP3     OH2      OT      -0.834000       15.9994           0
     33532 TIP3     3741     TIP3     H1       HT       0.417000       1.00800           0
     33533 TIP3     3741     TIP3     H2       HT       0.417000       1.00800           0
     33534 TIP3     3742     TIP3     OH2      OT      -0.834000       15.9994           0
     33535 TIP3     3742     TIP3     H1       HT       0.417000       1.00800           0
     33536 TIP3     3742     TIP3     H2       HT       0.417000       1.00800           0
     33537 TIP3     3743     TIP3     OH2      OT      -0.834000       15.9994           0
     33538 TIP3     3743     TIP3     H1       HT       0.417000       1.00800           0
     33539 TIP3     3743     TIP3     H2       HT       0.417000       1.00800           0
     33540 TIP3     3744     TIP3     OH2      OT      -0.834000       15.9994           0
     33541 TIP3     3744     TIP3     H1       HT       0.417000       1.00800           0
     33542 TIP3     3744     TIP3     H2       HT       0.417000       1.00800           0
     33543 TIP3     3745     TIP3     OH2      OT      -0.834000       15.9994           0
     33544 TIP3     3745     TIP3     H1       HT       0.417000       1.00800           0
     33545 TIP3     3745     TIP3     H2       HT       0.417000       1.00800           0
     33546 TIP3     3746     TIP3     OH2      OT      -0.834000       15.9994           0
     33547 TIP3     3746     TIP3     H1       HT       0.417000       1.00800           0
     33548 TIP3     3746     TIP3     H2       HT       0.417000       1.00800           0
     33549 TIP3     3747     TIP3     OH2      OT      -0.834000       15.9994           0
     33550 TIP3     3747     TIP3     H1       HT       0.417000       1.00800           0
     33551 TIP3     3747     TIP3     H2       HT       0.417000       1.00800           0
     33552 TIP3     3748     TIP3     OH2      OT      -0.834000       15.9994           0
     33553 TIP3     3748     TIP3     H1       HT       0.417000       1.00800           0
     33554 TIP3     3748     TIP3     H2       HT       0.417000       1.00800           0
     33555 TIP3     3749     TIP3     OH2      OT      -0.834000       15.9994           0
     33556 TIP3     3749     TIP3     H1       HT       0.417000       1.00800           0
     33557 TIP3     3749     TIP3     H2       HT       0.417000       1.00800           0
     33558 TIP3     3750     TIP3     OH2      OT      -0.834000       15.9994           0
     33559 TIP3     3750     TIP3     H1       HT       0.417000       1.00800           0
     33560 TIP3     3750     TIP3     H2       HT       0.417000       1.00800           0
     33561 TIP3     3751     TIP3     OH2      OT      -0.834000       15.9994           0
     33562 TIP3     3751     TIP3     H1       HT       0.417000       1.00800           0
     33563 TIP3     3751     TIP3     H2       HT       0.417000       1.00800           0
     33564 TIP3     3752     TIP3     OH2      OT      -0.834000       15.9994           0
     33565 TIP3     3752     TIP3     H1       HT       0.417000       1.00800           0
     33566 TIP3     3752     TIP3     H2       HT       0.417000       1.00800           0
     33567 TIP3     3753     TIP3     OH2      OT      -0.834000       15.9994           0
     33568 TIP3     3753     TIP3     H1       HT       0.417000       1.00800           0
     33569 TIP3     3753     TIP3     H2       HT       0.417000       1.00800           0
     33570 TIP3     3754     TIP3     OH2      OT      -0.834000       15.9994           0
     33571 TIP3     3754     TIP3     H1       HT       0.417000       1.00800           0
     33572 TIP3     3754     TIP3     H2       HT       0.417000       1.00800           0
     33573 TIP3     3755     TIP3     OH2      OT      -0.834000       15.9994           0
     33574 TIP3     3755     TIP3     H1       HT       0.417000       1.00800           0
     33575 TIP3     3755     TIP3     H2       HT       0.417000       1.00800           0
     33576 TIP3     3756     TIP3     OH2      OT      -0.834000       15.9994           0
     33577 TIP3     3756     TIP3     H1       HT       0.417000       1.00800           0
     33578 TIP3     3756     TIP3     H2       HT       0.417000       1.00800           0
     33579 TIP3     3757     TIP3     OH2      OT      -0.834000       15.9994           0
     33580 TIP3     3757     TIP3     H1       HT       0.417000       1.00800           0
     33581 TIP3     3757     TIP3     H2       HT       0.417000       1.00800           0
     33582 TIP3     3758     TIP3     OH2      OT      -0.834000       15.9994           0
     33583 TIP3     3758     TIP3     H1       HT       0.417000       1.00800           0
     33584 TIP3     3758     TIP3     H2       HT       0.417000       1.00800           0
     33585 TIP3     3759     TIP3     OH2      OT      -0.834000       15.9994           0
     33586 TIP3     3759     TIP3     H1       HT       0.417000       1.00800           0
     33587 TIP3     3759     TIP3     H2       HT       0.417000       1.00800           0
     33588 TIP3     3760     TIP3     OH2      OT      -0.834000       15.9994           0
     33589 TIP3     3760     TIP3     H1       HT       0.417000       1.00800           0
     33590 TIP3     3760     TIP3     H2       HT       0.417000       1.00800           0
     33591 TIP3     3761     TIP3     OH2      OT      -0.834000       15.9994           0
     33592 TIP3     3761     TIP3     H1       HT       0.417000       1.00800           0
     33593 TIP3     3761     TIP3     H2       HT       0.417000       1.00800           0
     33594 TIP3     3762     TIP3     OH2      OT      -0.834000       15.9994           0
     33595 TIP3     3762     TIP3     H1       HT       0.417000       1.00800           0
     33596 TIP3     3762     TIP3     H2       HT       0.417000       1.00800           0
     33597 TIP3     3763     TIP3     OH2      OT      -0.834000       15.9994           0
     33598 TIP3     3763     TIP3     H1       HT       0.417000       1.00800           0
     33599 TIP3     3763     TIP3     H2       HT       0.417000       1.00800           0
     33600 TIP3     3764     TIP3     OH2      OT      -0.834000       15.9994           0
     33601 TIP3     3764     TIP3     H1       HT       0.417000       1.00800           0
     33602 TIP3     3764     TIP3     H2       HT       0.417000       1.00800           0
     33603 TIP3     3765     TIP3     OH2      OT      -0.834000       15.9994           0
     33604 TIP3     3765     TIP3     H1       HT       0.417000       1.00800           0
     33605 TIP3     3765     TIP3     H2       HT       0.417000       1.00800           0
     33606 TIP3     3766     TIP3     OH2      OT      -0.834000       15.9994           0
     33607 TIP3     3766     TIP3     H1       HT       0.417000       1.00800           0
     33608 TIP3     3766     TIP3     H2       HT       0.417000       1.00800           0
     33609 TIP3     3767     TIP3     OH2      OT      -0.834000       15.9994           0
     33610 TIP3     3767     TIP3     H1       HT       0.417000       1.00800           0
     33611 TIP3     3767     TIP3     H2       HT       0.417000       1.00800           0
     33612 TIP3     3768     TIP3     OH2      OT      -0.834000       15.9994           0
     33613 TIP3     3768     TIP3     H1       HT       0.417000       1.00800           0
     33614 TIP3     3768     TIP3     H2       HT       0.417000       1.00800           0
     33615 TIP3     3769     TIP3     OH2      OT      -0.834000       15.9994           0
     33616 TIP3     3769     TIP3     H1       HT       0.417000       1.00800           0
     33617 TIP3     3769     TIP3     H2       HT       0.417000       1.00800           0
     33618 TIP3     3770     TIP3     OH2      OT      -0.834000       15.9994           0
     33619 TIP3     3770     TIP3     H1       HT       0.417000       1.00800           0
     33620 TIP3     3770     TIP3     H2       HT       0.417000       1.00800           0
     33621 TIP3     3771     TIP3     OH2      OT      -0.834000       15.9994           0
     33622 TIP3     3771     TIP3     H1       HT       0.417000       1.00800           0
     33623 TIP3     3771     TIP3     H2       HT       0.417000       1.00800           0
     33624 TIP3     3772     TIP3     OH2      OT      -0.834000       15.9994           0
     33625 TIP3     3772     TIP3     H1       HT       0.417000       1.00800           0
     33626 TIP3     3772     TIP3     H2       HT       0.417000       1.00800           0
     33627 TIP3     3773     TIP3     OH2      OT      -0.834000       15.9994           0
     33628 TIP3     3773     TIP3     H1       HT       0.417000       1.00800           0
     33629 TIP3     3773     TIP3     H2       HT       0.417000       1.00800           0
     33630 TIP3     3774     TIP3     OH2      OT      -0.834000       15.9994           0
     33631 TIP3     3774     TIP3     H1       HT       0.417000       1.00800           0
     33632 TIP3     3774     TIP3     H2       HT       0.417000       1.00800           0
     33633 TIP3     3775     TIP3     OH2      OT      -0.834000       15.9994           0
     33634 TIP3     3775     TIP3     H1       HT       0.417000       1.00800           0
     33635 TIP3     3775     TIP3     H2       HT       0.417000       1.00800           0
     33636 TIP3     3776     TIP3     OH2      OT      -0.834000       15.9994           0
     33637 TIP3     3776     TIP3     H1       HT       0.417000       1.00800           0
     33638 TIP3     3776     TIP3     H2       HT       0.417000       1.00800           0
     33639 TIP3     3777     TIP3     OH2      OT      -0.834000       15.9994           0
     33640 TIP3     3777     TIP3     H1       HT       0.417000       1.00800           0
     33641 TIP3     3777     TIP3     H2       HT       0.417000       1.00800           0
     33642 TIP3     3778     TIP3     OH2      OT      -0.834000       15.9994           0
     33643 TIP3     3778     TIP3     H1       HT       0.417000       1.00800           0
     33644 TIP3     3778     TIP3     H2       HT       0.417000       1.00800           0
     33645 TIP3     3779     TIP3     OH2      OT      -0.834000       15.9994           0
     33646 TIP3     3779     TIP3     H1       HT       0.417000       1.00800           0
     33647 TIP3     3779     TIP3     H2       HT       0.417000       1.00800           0
     33648 TIP3     3780     TIP3     OH2      OT      -0.834000       15.9994           0
     33649 TIP3     3780     TIP3     H1       HT       0.417000       1.00800           0
     33650 TIP3     3780     TIP3     H2       HT       0.417000       1.00800           0
     33651 TIP3     3781     TIP3     OH2      OT      -0.834000       15.9994           0
     33652 TIP3     3781     TIP3     H1       HT       0.417000       1.00800           0
     33653 TIP3     3781     TIP3     H2       HT       0.417000       1.00800           0
     33654 TIP3     3782     TIP3     OH2      OT      -0.834000       15.9994           0
     33655 TIP3     3782     TIP3     H1       HT       0.417000       1.00800           0
     33656 TIP3     3782     TIP3     H2       HT       0.417000       1.00800           0
     33657 TIP3     3783     TIP3     OH2      OT      -0.834000       15.9994           0
     33658 TIP3     3783     TIP3     H1       HT       0.417000       1.00800           0
     33659 TIP3     3783     TIP3     H2       HT       0.417000       1.00800           0
     33660 TIP3     3784     TIP3     OH2      OT      -0.834000       15.9994           0
     33661 TIP3     3784     TIP3     H1       HT       0.417000       1.00800           0
     33662 TIP3     3784     TIP3     H2       HT       0.417000       1.00800           0
     33663 TIP3     3785     TIP3     OH2      OT      -0.834000       15.9994           0
     33664 TIP3     3785     TIP3     H1       HT       0.417000       1.00800           0
     33665 TIP3     3785     TIP3     H2       HT       0.417000       1.00800           0
     33666 TIP3     3786     TIP3     OH2      OT      -0.834000       15.9994           0
     33667 TIP3     3786     TIP3     H1       HT       0.417000       1.00800           0
     33668 TIP3     3786     TIP3     H2       HT       0.417000       1.00800           0
     33669 TIP3     3787     TIP3     OH2      OT      -0.834000       15.9994           0
     33670 TIP3     3787     TIP3     H1       HT       0.417000       1.00800           0
     33671 TIP3     3787     TIP3     H2       HT       0.417000       1.00800           0
     33672 TIP3     3788     TIP3     OH2      OT      -0.834000       15.9994           0
     33673 TIP3     3788     TIP3     H1       HT       0.417000       1.00800           0
     33674 TIP3     3788     TIP3     H2       HT       0.417000       1.00800           0
     33675 TIP3     3789     TIP3     OH2      OT      -0.834000       15.9994           0
     33676 TIP3     3789     TIP3     H1       HT       0.417000       1.00800           0
     33677 TIP3     3789     TIP3     H2       HT       0.417000       1.00800           0
     33678 TIP3     3790     TIP3     OH2      OT      -0.834000       15.9994           0
     33679 TIP3     3790     TIP3     H1       HT       0.417000       1.00800           0
     33680 TIP3     3790     TIP3     H2       HT       0.417000       1.00800           0
     33681 TIP3     3791     TIP3     OH2      OT      -0.834000       15.9994           0
     33682 TIP3     3791     TIP3     H1       HT       0.417000       1.00800           0
     33683 TIP3     3791     TIP3     H2       HT       0.417000       1.00800           0
     33684 TIP3     3792     TIP3     OH2      OT      -0.834000       15.9994           0
     33685 TIP3     3792     TIP3     H1       HT       0.417000       1.00800           0
     33686 TIP3     3792     TIP3     H2       HT       0.417000       1.00800           0
     33687 TIP3     3793     TIP3     OH2      OT      -0.834000       15.9994           0
     33688 TIP3     3793     TIP3     H1       HT       0.417000       1.00800           0
     33689 TIP3     3793     TIP3     H2       HT       0.417000       1.00800           0
     33690 TIP3     3794     TIP3     OH2      OT      -0.834000       15.9994           0
     33691 TIP3     3794     TIP3     H1       HT       0.417000       1.00800           0
     33692 TIP3     3794     TIP3     H2       HT       0.417000       1.00800           0
     33693 TIP3     3795     TIP3     OH2      OT      -0.834000       15.9994           0
     33694 TIP3     3795     TIP3     H1       HT       0.417000       1.00800           0
     33695 TIP3     3795     TIP3     H2       HT       0.417000       1.00800           0
     33696 TIP3     3796     TIP3     OH2      OT      -0.834000       15.9994           0
     33697 TIP3     3796     TIP3     H1       HT       0.417000       1.00800           0
     33698 TIP3     3796     TIP3     H2       HT       0.417000       1.00800           0
     33699 TIP3     3797     TIP3     OH2      OT      -0.834000       15.9994           0
     33700 TIP3     3797     TIP3     H1       HT       0.417000       1.00800           0
     33701 TIP3     3797     TIP3     H2       HT       0.417000       1.00800           0
     33702 TIP3     3798     TIP3     OH2      OT      -0.834000       15.9994           0
     33703 TIP3     3798     TIP3     H1       HT       0.417000       1.00800           0
     33704 TIP3     3798     TIP3     H2       HT       0.417000       1.00800           0
     33705 TIP3     3799     TIP3     OH2      OT      -0.834000       15.9994           0
     33706 TIP3     3799     TIP3     H1       HT       0.417000       1.00800           0
     33707 TIP3     3799     TIP3     H2       HT       0.417000       1.00800           0
     33708 TIP3     3800     TIP3     OH2      OT      -0.834000       15.9994           0
     33709 TIP3     3800     TIP3     H1       HT       0.417000       1.00800           0
     33710 TIP3     3800     TIP3     H2       HT       0.417000       1.00800           0
     33711 TIP3     3801     TIP3     OH2      OT      -0.834000       15.9994           0
     33712 TIP3     3801     TIP3     H1       HT       0.417000       1.00800           0
     33713 TIP3     3801     TIP3     H2       HT       0.417000       1.00800           0
     33714 TIP3     3802     TIP3     OH2      OT      -0.834000       15.9994           0
     33715 TIP3     3802     TIP3     H1       HT       0.417000       1.00800           0
     33716 TIP3     3802     TIP3     H2       HT       0.417000       1.00800           0
     33717 TIP3     3803     TIP3     OH2      OT      -0.834000       15.9994           0
     33718 TIP3     3803     TIP3     H1       HT       0.417000       1.00800           0
     33719 TIP3     3803     TIP3     H2       HT       0.417000       1.00800           0
     33720 TIP3     3804     TIP3     OH2      OT      -0.834000       15.9994           0
     33721 TIP3     3804     TIP3     H1       HT       0.417000       1.00800           0
     33722 TIP3     3804     TIP3     H2       HT       0.417000       1.00800           0
     33723 TIP3     3805     TIP3     OH2      OT      -0.834000       15.9994           0
     33724 TIP3     3805     TIP3     H1       HT       0.417000       1.00800           0
     33725 TIP3     3805     TIP3     H2       HT       0.417000       1.00800           0
     33726 TIP3     3806     TIP3     OH2      OT      -0.834000       15.9994           0
     33727 TIP3     3806     TIP3     H1       HT       0.417000       1.00800           0
     33728 TIP3     3806     TIP3     H2       HT       0.417000       1.00800           0
     33729 TIP3     3807     TIP3     OH2      OT      -0.834000       15.9994           0
     33730 TIP3     3807     TIP3     H1       HT       0.417000       1.00800           0
     33731 TIP3     3807     TIP3     H2       HT       0.417000       1.00800           0
     33732 TIP3     3808     TIP3     OH2      OT      -0.834000       15.9994           0
     33733 TIP3     3808     TIP3     H1       HT       0.417000       1.00800           0
     33734 TIP3     3808     TIP3     H2       HT       0.417000       1.00800           0
     33735 TIP3     3809     TIP3     OH2      OT      -0.834000       15.9994           0
     33736 TIP3     3809     TIP3     H1       HT       0.417000       1.00800           0
     33737 TIP3     3809     TIP3     H2       HT       0.417000       1.00800           0
     33738 TIP3     3810     TIP3     OH2      OT      -0.834000       15.9994           0
     33739 TIP3     3810     TIP3     H1       HT       0.417000       1.00800           0
     33740 TIP3     3810     TIP3     H2       HT       0.417000       1.00800           0
     33741 TIP3     3811     TIP3     OH2      OT      -0.834000       15.9994           0
     33742 TIP3     3811     TIP3     H1       HT       0.417000       1.00800           0
     33743 TIP3     3811     TIP3     H2       HT       0.417000       1.00800           0
     33744 TIP3     3812     TIP3     OH2      OT      -0.834000       15.9994           0
     33745 TIP3     3812     TIP3     H1       HT       0.417000       1.00800           0
     33746 TIP3     3812     TIP3     H2       HT       0.417000       1.00800           0
     33747 TIP3     3813     TIP3     OH2      OT      -0.834000       15.9994           0
     33748 TIP3     3813     TIP3     H1       HT       0.417000       1.00800           0
     33749 TIP3     3813     TIP3     H2       HT       0.417000       1.00800           0
     33750 TIP3     3814     TIP3     OH2      OT      -0.834000       15.9994           0
     33751 TIP3     3814     TIP3     H1       HT       0.417000       1.00800           0
     33752 TIP3     3814     TIP3     H2       HT       0.417000       1.00800           0
     33753 TIP3     3815     TIP3     OH2      OT      -0.834000       15.9994           0
     33754 TIP3     3815     TIP3     H1       HT       0.417000       1.00800           0
     33755 TIP3     3815     TIP3     H2       HT       0.417000       1.00800           0
     33756 TIP3     3816     TIP3     OH2      OT      -0.834000       15.9994           0
     33757 TIP3     3816     TIP3     H1       HT       0.417000       1.00800           0
     33758 TIP3     3816     TIP3     H2       HT       0.417000       1.00800           0
     33759 TIP3     3817     TIP3     OH2      OT      -0.834000       15.9994           0
     33760 TIP3     3817     TIP3     H1       HT       0.417000       1.00800           0
     33761 TIP3     3817     TIP3     H2       HT       0.417000       1.00800           0
     33762 TIP3     3818     TIP3     OH2      OT      -0.834000       15.9994           0
     33763 TIP3     3818     TIP3     H1       HT       0.417000       1.00800           0
     33764 TIP3     3818     TIP3     H2       HT       0.417000       1.00800           0
     33765 TIP3     3819     TIP3     OH2      OT      -0.834000       15.9994           0
     33766 TIP3     3819     TIP3     H1       HT       0.417000       1.00800           0
     33767 TIP3     3819     TIP3     H2       HT       0.417000       1.00800           0
     33768 TIP3     3820     TIP3     OH2      OT      -0.834000       15.9994           0
     33769 TIP3     3820     TIP3     H1       HT       0.417000       1.00800           0
     33770 TIP3     3820     TIP3     H2       HT       0.417000       1.00800           0
     33771 TIP3     3821     TIP3     OH2      OT      -0.834000       15.9994           0
     33772 TIP3     3821     TIP3     H1       HT       0.417000       1.00800           0
     33773 TIP3     3821     TIP3     H2       HT       0.417000       1.00800           0
     33774 TIP3     3822     TIP3     OH2      OT      -0.834000       15.9994           0
     33775 TIP3     3822     TIP3     H1       HT       0.417000       1.00800           0
     33776 TIP3     3822     TIP3     H2       HT       0.417000       1.00800           0
     33777 TIP3     3823     TIP3     OH2      OT      -0.834000       15.9994           0
     33778 TIP3     3823     TIP3     H1       HT       0.417000       1.00800           0
     33779 TIP3     3823     TIP3     H2       HT       0.417000       1.00800           0
     33780 TIP3     3824     TIP3     OH2      OT      -0.834000       15.9994           0
     33781 TIP3     3824     TIP3     H1       HT       0.417000       1.00800           0
     33782 TIP3     3824     TIP3     H2       HT       0.417000       1.00800           0
     33783 TIP3     3825     TIP3     OH2      OT      -0.834000       15.9994           0
     33784 TIP3     3825     TIP3     H1       HT       0.417000       1.00800           0
     33785 TIP3     3825     TIP3     H2       HT       0.417000       1.00800           0
     33786 TIP3     3826     TIP3     OH2      OT      -0.834000       15.9994           0
     33787 TIP3     3826     TIP3     H1       HT       0.417000       1.00800           0
     33788 TIP3     3826     TIP3     H2       HT       0.417000       1.00800           0
     33789 TIP3     3827     TIP3     OH2      OT      -0.834000       15.9994           0
     33790 TIP3     3827     TIP3     H1       HT       0.417000       1.00800           0
     33791 TIP3     3827     TIP3     H2       HT       0.417000       1.00800           0
     33792 TIP3     3828     TIP3     OH2      OT      -0.834000       15.9994           0
     33793 TIP3     3828     TIP3     H1       HT       0.417000       1.00800           0
     33794 TIP3     3828     TIP3     H2       HT       0.417000       1.00800           0
     33795 TIP3     3829     TIP3     OH2      OT      -0.834000       15.9994           0
     33796 TIP3     3829     TIP3     H1       HT       0.417000       1.00800           0
     33797 TIP3     3829     TIP3     H2       HT       0.417000       1.00800           0
     33798 TIP3     3830     TIP3     OH2      OT      -0.834000       15.9994           0
     33799 TIP3     3830     TIP3     H1       HT       0.417000       1.00800           0
     33800 TIP3     3830     TIP3     H2       HT       0.417000       1.00800           0
     33801 TIP3     3831     TIP3     OH2      OT      -0.834000       15.9994           0
     33802 TIP3     3831     TIP3     H1       HT       0.417000       1.00800           0
     33803 TIP3     3831     TIP3     H2       HT       0.417000       1.00800           0
     33804 TIP3     3832     TIP3     OH2      OT      -0.834000       15.9994           0
     33805 TIP3     3832     TIP3     H1       HT       0.417000       1.00800           0
     33806 TIP3     3832     TIP3     H2       HT       0.417000       1.00800           0
     33807 TIP3     3833     TIP3     OH2      OT      -0.834000       15.9994           0
     33808 TIP3     3833     TIP3     H1       HT       0.417000       1.00800           0
     33809 TIP3     3833     TIP3     H2       HT       0.417000       1.00800           0
     33810 TIP3     3834     TIP3     OH2      OT      -0.834000       15.9994           0
     33811 TIP3     3834     TIP3     H1       HT       0.417000       1.00800           0
     33812 TIP3     3834     TIP3     H2       HT       0.417000       1.00800           0
     33813 TIP3     3835     TIP3     OH2      OT      -0.834000       15.9994           0
     33814 TIP3     3835     TIP3     H1       HT       0.417000       1.00800           0
     33815 TIP3     3835     TIP3     H2       HT       0.417000       1.00800           0
     33816 TIP3     3836     TIP3     OH2      OT      -0.834000       15.9994           0
     33817 TIP3     3836     TIP3     H1       HT       0.417000       1.00800           0
     33818 TIP3     3836     TIP3     H2       HT       0.417000       1.00800           0
     33819 TIP3     3837     TIP3     OH2      OT      -0.834000       15.9994           0
     33820 TIP3     3837     TIP3     H1       HT       0.417000       1.00800           0
     33821 TIP3     3837     TIP3     H2       HT       0.417000       1.00800           0
     33822 TIP3     3838     TIP3     OH2      OT      -0.834000       15.9994           0
     33823 TIP3     3838     TIP3     H1       HT       0.417000       1.00800           0
     33824 TIP3     3838     TIP3     H2       HT       0.417000       1.00800           0
     33825 TIP3     3839     TIP3     OH2      OT      -0.834000       15.9994           0
     33826 TIP3     3839     TIP3     H1       HT       0.417000       1.00800           0
     33827 TIP3     3839     TIP3     H2       HT       0.417000       1.00800           0
     33828 TIP3     3840     TIP3     OH2      OT      -0.834000       15.9994           0
     33829 TIP3     3840     TIP3     H1       HT       0.417000       1.00800           0
     33830 TIP3     3840     TIP3     H2       HT       0.417000       1.00800           0
     33831 TIP3     3841     TIP3     OH2      OT      -0.834000       15.9994           0
     33832 TIP3     3841     TIP3     H1       HT       0.417000       1.00800           0
     33833 TIP3     3841     TIP3     H2       HT       0.417000       1.00800           0
     33834 TIP3     3842     TIP3     OH2      OT      -0.834000       15.9994           0
     33835 TIP3     3842     TIP3     H1       HT       0.417000       1.00800           0
     33836 TIP3     3842     TIP3     H2       HT       0.417000       1.00800           0
     33837 TIP3     3843     TIP3     OH2      OT      -0.834000       15.9994           0
     33838 TIP3     3843     TIP3     H1       HT       0.417000       1.00800           0
     33839 TIP3     3843     TIP3     H2       HT       0.417000       1.00800           0
     33840 TIP3     3844     TIP3     OH2      OT      -0.834000       15.9994           0
     33841 TIP3     3844     TIP3     H1       HT       0.417000       1.00800           0
     33842 TIP3     3844     TIP3     H2       HT       0.417000       1.00800           0
     33843 TIP3     3845     TIP3     OH2      OT      -0.834000       15.9994           0
     33844 TIP3     3845     TIP3     H1       HT       0.417000       1.00800           0
     33845 TIP3     3845     TIP3     H2       HT       0.417000       1.00800           0
     33846 TIP3     3846     TIP3     OH2      OT      -0.834000       15.9994           0
     33847 TIP3     3846     TIP3     H1       HT       0.417000       1.00800           0
     33848 TIP3     3846     TIP3     H2       HT       0.417000       1.00800           0
     33849 TIP3     3847     TIP3     OH2      OT      -0.834000       15.9994           0
     33850 TIP3     3847     TIP3     H1       HT       0.417000       1.00800           0
     33851 TIP3     3847     TIP3     H2       HT       0.417000       1.00800           0
     33852 TIP3     3848     TIP3     OH2      OT      -0.834000       15.9994           0
     33853 TIP3     3848     TIP3     H1       HT       0.417000       1.00800           0
     33854 TIP3     3848     TIP3     H2       HT       0.417000       1.00800           0
     33855 TIP3     3849     TIP3     OH2      OT      -0.834000       15.9994           0
     33856 TIP3     3849     TIP3     H1       HT       0.417000       1.00800           0
     33857 TIP3     3849     TIP3     H2       HT       0.417000       1.00800           0
     33858 TIP3     3850     TIP3     OH2      OT      -0.834000       15.9994           0
     33859 TIP3     3850     TIP3     H1       HT       0.417000       1.00800           0
     33860 TIP3     3850     TIP3     H2       HT       0.417000       1.00800           0
     33861 TIP3     3851     TIP3     OH2      OT      -0.834000       15.9994           0
     33862 TIP3     3851     TIP3     H1       HT       0.417000       1.00800           0
     33863 TIP3     3851     TIP3     H2       HT       0.417000       1.00800           0
     33864 TIP3     3852     TIP3     OH2      OT      -0.834000       15.9994           0
     33865 TIP3     3852     TIP3     H1       HT       0.417000       1.00800           0
     33866 TIP3     3852     TIP3     H2       HT       0.417000       1.00800           0
     33867 TIP3     3853     TIP3     OH2      OT      -0.834000       15.9994           0
     33868 TIP3     3853     TIP3     H1       HT       0.417000       1.00800           0
     33869 TIP3     3853     TIP3     H2       HT       0.417000       1.00800           0
     33870 TIP3     3854     TIP3     OH2      OT      -0.834000       15.9994           0
     33871 TIP3     3854     TIP3     H1       HT       0.417000       1.00800           0
     33872 TIP3     3854     TIP3     H2       HT       0.417000       1.00800           0
     33873 TIP3     3855     TIP3     OH2      OT      -0.834000       15.9994           0
     33874 TIP3     3855     TIP3     H1       HT       0.417000       1.00800           0
     33875 TIP3     3855     TIP3     H2       HT       0.417000       1.00800           0
     33876 TIP3     3856     TIP3     OH2      OT      -0.834000       15.9994           0
     33877 TIP3     3856     TIP3     H1       HT       0.417000       1.00800           0
     33878 TIP3     3856     TIP3     H2       HT       0.417000       1.00800           0
     33879 TIP3     3857     TIP3     OH2      OT      -0.834000       15.9994           0
     33880 TIP3     3857     TIP3     H1       HT       0.417000       1.00800           0
     33881 TIP3     3857     TIP3     H2       HT       0.417000       1.00800           0
     33882 TIP3     3858     TIP3     OH2      OT      -0.834000       15.9994           0
     33883 TIP3     3858     TIP3     H1       HT       0.417000       1.00800           0
     33884 TIP3     3858     TIP3     H2       HT       0.417000       1.00800           0
     33885 TIP3     3859     TIP3     OH2      OT      -0.834000       15.9994           0
     33886 TIP3     3859     TIP3     H1       HT       0.417000       1.00800           0
     33887 TIP3     3859     TIP3     H2       HT       0.417000       1.00800           0
     33888 TIP3     3860     TIP3     OH2      OT      -0.834000       15.9994           0
     33889 TIP3     3860     TIP3     H1       HT       0.417000       1.00800           0
     33890 TIP3     3860     TIP3     H2       HT       0.417000       1.00800           0
     33891 TIP3     3861     TIP3     OH2      OT      -0.834000       15.9994           0
     33892 TIP3     3861     TIP3     H1       HT       0.417000       1.00800           0
     33893 TIP3     3861     TIP3     H2       HT       0.417000       1.00800           0
     33894 TIP3     3862     TIP3     OH2      OT      -0.834000       15.9994           0
     33895 TIP3     3862     TIP3     H1       HT       0.417000       1.00800           0
     33896 TIP3     3862     TIP3     H2       HT       0.417000       1.00800           0
     33897 TIP3     3863     TIP3     OH2      OT      -0.834000       15.9994           0
     33898 TIP3     3863     TIP3     H1       HT       0.417000       1.00800           0
     33899 TIP3     3863     TIP3     H2       HT       0.417000       1.00800           0
     33900 TIP3     3864     TIP3     OH2      OT      -0.834000       15.9994           0
     33901 TIP3     3864     TIP3     H1       HT       0.417000       1.00800           0
     33902 TIP3     3864     TIP3     H2       HT       0.417000       1.00800           0
     33903 TIP3     3865     TIP3     OH2      OT      -0.834000       15.9994           0
     33904 TIP3     3865     TIP3     H1       HT       0.417000       1.00800           0
     33905 TIP3     3865     TIP3     H2       HT       0.417000       1.00800           0
     33906 TIP3     3866     TIP3     OH2      OT      -0.834000       15.9994           0
     33907 TIP3     3866     TIP3     H1       HT       0.417000       1.00800           0
     33908 TIP3     3866     TIP3     H2       HT       0.417000       1.00800           0
     33909 TIP3     3867     TIP3     OH2      OT      -0.834000       15.9994           0
     33910 TIP3     3867     TIP3     H1       HT       0.417000       1.00800           0
     33911 TIP3     3867     TIP3     H2       HT       0.417000       1.00800           0
     33912 TIP3     3868     TIP3     OH2      OT      -0.834000       15.9994           0
     33913 TIP3     3868     TIP3     H1       HT       0.417000       1.00800           0
     33914 TIP3     3868     TIP3     H2       HT       0.417000       1.00800           0
     33915 TIP3     3869     TIP3     OH2      OT      -0.834000       15.9994           0
     33916 TIP3     3869     TIP3     H1       HT       0.417000       1.00800           0
     33917 TIP3     3869     TIP3     H2       HT       0.417000       1.00800           0
     33918 TIP3     3870     TIP3     OH2      OT      -0.834000       15.9994           0
     33919 TIP3     3870     TIP3     H1       HT       0.417000       1.00800           0
     33920 TIP3     3870     TIP3     H2       HT       0.417000       1.00800           0
     33921 TIP3     3871     TIP3     OH2      OT      -0.834000       15.9994           0
     33922 TIP3     3871     TIP3     H1       HT       0.417000       1.00800           0
     33923 TIP3     3871     TIP3     H2       HT       0.417000       1.00800           0
     33924 TIP3     3872     TIP3     OH2      OT      -0.834000       15.9994           0
     33925 TIP3     3872     TIP3     H1       HT       0.417000       1.00800           0
     33926 TIP3     3872     TIP3     H2       HT       0.417000       1.00800           0
     33927 TIP3     3873     TIP3     OH2      OT      -0.834000       15.9994           0
     33928 TIP3     3873     TIP3     H1       HT       0.417000       1.00800           0
     33929 TIP3     3873     TIP3     H2       HT       0.417000       1.00800           0
     33930 TIP3     3874     TIP3     OH2      OT      -0.834000       15.9994           0
     33931 TIP3     3874     TIP3     H1       HT       0.417000       1.00800           0
     33932 TIP3     3874     TIP3     H2       HT       0.417000       1.00800           0
     33933 TIP3     3875     TIP3     OH2      OT      -0.834000       15.9994           0
     33934 TIP3     3875     TIP3     H1       HT       0.417000       1.00800           0
     33935 TIP3     3875     TIP3     H2       HT       0.417000       1.00800           0
     33936 TIP3     3876     TIP3     OH2      OT      -0.834000       15.9994           0
     33937 TIP3     3876     TIP3     H1       HT       0.417000       1.00800           0
     33938 TIP3     3876     TIP3     H2       HT       0.417000       1.00800           0
     33939 TIP3     3877     TIP3     OH2      OT      -0.834000       15.9994           0
     33940 TIP3     3877     TIP3     H1       HT       0.417000       1.00800           0
     33941 TIP3     3877     TIP3     H2       HT       0.417000       1.00800           0
     33942 TIP3     3878     TIP3     OH2      OT      -0.834000       15.9994           0
     33943 TIP3     3878     TIP3     H1       HT       0.417000       1.00800           0
     33944 TIP3     3878     TIP3     H2       HT       0.417000       1.00800           0
     33945 TIP3     3879     TIP3     OH2      OT      -0.834000       15.9994           0
     33946 TIP3     3879     TIP3     H1       HT       0.417000       1.00800           0
     33947 TIP3     3879     TIP3     H2       HT       0.417000       1.00800           0
     33948 TIP3     3880     TIP3     OH2      OT      -0.834000       15.9994           0
     33949 TIP3     3880     TIP3     H1       HT       0.417000       1.00800           0
     33950 TIP3     3880     TIP3     H2       HT       0.417000       1.00800           0
     33951 TIP3     3881     TIP3     OH2      OT      -0.834000       15.9994           0
     33952 TIP3     3881     TIP3     H1       HT       0.417000       1.00800           0
     33953 TIP3     3881     TIP3     H2       HT       0.417000       1.00800           0
     33954 TIP3     3882     TIP3     OH2      OT      -0.834000       15.9994           0
     33955 TIP3     3882     TIP3     H1       HT       0.417000       1.00800           0
     33956 TIP3     3882     TIP3     H2       HT       0.417000       1.00800           0
     33957 TIP3     3883     TIP3     OH2      OT      -0.834000       15.9994           0
     33958 TIP3     3883     TIP3     H1       HT       0.417000       1.00800           0
     33959 TIP3     3883     TIP3     H2       HT       0.417000       1.00800           0
     33960 TIP3     3884     TIP3     OH2      OT      -0.834000       15.9994           0
     33961 TIP3     3884     TIP3     H1       HT       0.417000       1.00800           0
     33962 TIP3     3884     TIP3     H2       HT       0.417000       1.00800           0
     33963 TIP3     3885     TIP3     OH2      OT      -0.834000       15.9994           0
     33964 TIP3     3885     TIP3     H1       HT       0.417000       1.00800           0
     33965 TIP3     3885     TIP3     H2       HT       0.417000       1.00800           0
     33966 TIP3     3886     TIP3     OH2      OT      -0.834000       15.9994           0
     33967 TIP3     3886     TIP3     H1       HT       0.417000       1.00800           0
     33968 TIP3     3886     TIP3     H2       HT       0.417000       1.00800           0
     33969 TIP3     3887     TIP3     OH2      OT      -0.834000       15.9994           0
     33970 TIP3     3887     TIP3     H1       HT       0.417000       1.00800           0
     33971 TIP3     3887     TIP3     H2       HT       0.417000       1.00800           0
     33972 TIP3     3888     TIP3     OH2      OT      -0.834000       15.9994           0
     33973 TIP3     3888     TIP3     H1       HT       0.417000       1.00800           0
     33974 TIP3     3888     TIP3     H2       HT       0.417000       1.00800           0
     33975 TIP3     3889     TIP3     OH2      OT      -0.834000       15.9994           0
     33976 TIP3     3889     TIP3     H1       HT       0.417000       1.00800           0
     33977 TIP3     3889     TIP3     H2       HT       0.417000       1.00800           0
     33978 TIP3     3890     TIP3     OH2      OT      -0.834000       15.9994           0
     33979 TIP3     3890     TIP3     H1       HT       0.417000       1.00800           0
     33980 TIP3     3890     TIP3     H2       HT       0.417000       1.00800           0
     33981 TIP3     3891     TIP3     OH2      OT      -0.834000       15.9994           0
     33982 TIP3     3891     TIP3     H1       HT       0.417000       1.00800           0
     33983 TIP3     3891     TIP3     H2       HT       0.417000       1.00800           0
     33984 TIP3     3892     TIP3     OH2      OT      -0.834000       15.9994           0
     33985 TIP3     3892     TIP3     H1       HT       0.417000       1.00800           0
     33986 TIP3     3892     TIP3     H2       HT       0.417000       1.00800           0
     33987 TIP3     3893     TIP3     OH2      OT      -0.834000       15.9994           0
     33988 TIP3     3893     TIP3     H1       HT       0.417000       1.00800           0
     33989 TIP3     3893     TIP3     H2       HT       0.417000       1.00800           0
     33990 TIP3     3894     TIP3     OH2      OT      -0.834000       15.9994           0
     33991 TIP3     3894     TIP3     H1       HT       0.417000       1.00800           0
     33992 TIP3     3894     TIP3     H2       HT       0.417000       1.00800           0
     33993 TIP3     3895     TIP3     OH2      OT      -0.834000       15.9994           0
     33994 TIP3     3895     TIP3     H1       HT       0.417000       1.00800           0
     33995 TIP3     3895     TIP3     H2       HT       0.417000       1.00800           0
     33996 TIP3     3896     TIP3     OH2      OT      -0.834000       15.9994           0
     33997 TIP3     3896     TIP3     H1       HT       0.417000       1.00800           0
     33998 TIP3     3896     TIP3     H2       HT       0.417000       1.00800           0
     33999 TIP3     3897     TIP3     OH2      OT      -0.834000       15.9994           0
     34000 TIP3     3897     TIP3     H1       HT       0.417000       1.00800           0
     34001 TIP3     3897     TIP3     H2       HT       0.417000       1.00800           0
     34002 TIP3     3898     TIP3     OH2      OT      -0.834000       15.9994           0
     34003 TIP3     3898     TIP3     H1       HT       0.417000       1.00800           0
     34004 TIP3     3898     TIP3     H2       HT       0.417000       1.00800           0
     34005 TIP3     3899     TIP3     OH2      OT      -0.834000       15.9994           0
     34006 TIP3     3899     TIP3     H1       HT       0.417000       1.00800           0
     34007 TIP3     3899     TIP3     H2       HT       0.417000       1.00800           0
     34008 TIP3     3900     TIP3     OH2      OT      -0.834000       15.9994           0
     34009 TIP3     3900     TIP3     H1       HT       0.417000       1.00800           0
     34010 TIP3     3900     TIP3     H2       HT       0.417000       1.00800           0
     34011 TIP3     3901     TIP3     OH2      OT      -0.834000       15.9994           0
     34012 TIP3     3901     TIP3     H1       HT       0.417000       1.00800           0
     34013 TIP3     3901     TIP3     H2       HT       0.417000       1.00800           0
     34014 TIP3     3902     TIP3     OH2      OT      -0.834000       15.9994           0
     34015 TIP3     3902     TIP3     H1       HT       0.417000       1.00800           0
     34016 TIP3     3902     TIP3     H2       HT       0.417000       1.00800           0
     34017 TIP3     3903     TIP3     OH2      OT      -0.834000       15.9994           0
     34018 TIP3     3903     TIP3     H1       HT       0.417000       1.00800           0
     34019 TIP3     3903     TIP3     H2       HT       0.417000       1.00800           0
     34020 TIP3     3904     TIP3     OH2      OT      -0.834000       15.9994           0
     34021 TIP3     3904     TIP3     H1       HT       0.417000       1.00800           0
     34022 TIP3     3904     TIP3     H2       HT       0.417000       1.00800           0
     34023 TIP3     3905     TIP3     OH2      OT      -0.834000       15.9994           0
     34024 TIP3     3905     TIP3     H1       HT       0.417000       1.00800           0
     34025 TIP3     3905     TIP3     H2       HT       0.417000       1.00800           0
     34026 TIP3     3906     TIP3     OH2      OT      -0.834000       15.9994           0
     34027 TIP3     3906     TIP3     H1       HT       0.417000       1.00800           0
     34028 TIP3     3906     TIP3     H2       HT       0.417000       1.00800           0
     34029 TIP3     3907     TIP3     OH2      OT      -0.834000       15.9994           0
     34030 TIP3     3907     TIP3     H1       HT       0.417000       1.00800           0
     34031 TIP3     3907     TIP3     H2       HT       0.417000       1.00800           0
     34032 TIP3     3908     TIP3     OH2      OT      -0.834000       15.9994           0
     34033 TIP3     3908     TIP3     H1       HT       0.417000       1.00800           0
     34034 TIP3     3908     TIP3     H2       HT       0.417000       1.00800           0
     34035 TIP3     3909     TIP3     OH2      OT      -0.834000       15.9994           0
     34036 TIP3     3909     TIP3     H1       HT       0.417000       1.00800           0
     34037 TIP3     3909     TIP3     H2       HT       0.417000       1.00800           0
     34038 TIP3     3910     TIP3     OH2      OT      -0.834000       15.9994           0
     34039 TIP3     3910     TIP3     H1       HT       0.417000       1.00800           0
     34040 TIP3     3910     TIP3     H2       HT       0.417000       1.00800           0
     34041 TIP3     3911     TIP3     OH2      OT      -0.834000       15.9994           0
     34042 TIP3     3911     TIP3     H1       HT       0.417000       1.00800           0
     34043 TIP3     3911     TIP3     H2       HT       0.417000       1.00800           0
     34044 TIP3     3912     TIP3     OH2      OT      -0.834000       15.9994           0
     34045 TIP3     3912     TIP3     H1       HT       0.417000       1.00800           0
     34046 TIP3     3912     TIP3     H2       HT       0.417000       1.00800           0
     34047 TIP3     3913     TIP3     OH2      OT      -0.834000       15.9994           0
     34048 TIP3     3913     TIP3     H1       HT       0.417000       1.00800           0
     34049 TIP3     3913     TIP3     H2       HT       0.417000       1.00800           0
     34050 TIP3     3914     TIP3     OH2      OT      -0.834000       15.9994           0
     34051 TIP3     3914     TIP3     H1       HT       0.417000       1.00800           0
     34052 TIP3     3914     TIP3     H2       HT       0.417000       1.00800           0
     34053 TIP3     3915     TIP3     OH2      OT      -0.834000       15.9994           0
     34054 TIP3     3915     TIP3     H1       HT       0.417000       1.00800           0
     34055 TIP3     3915     TIP3     H2       HT       0.417000       1.00800           0
     34056 TIP3     3916     TIP3     OH2      OT      -0.834000       15.9994           0
     34057 TIP3     3916     TIP3     H1       HT       0.417000       1.00800           0
     34058 TIP3     3916     TIP3     H2       HT       0.417000       1.00800           0
     34059 TIP3     3917     TIP3     OH2      OT      -0.834000       15.9994           0
     34060 TIP3     3917     TIP3     H1       HT       0.417000       1.00800           0
     34061 TIP3     3917     TIP3     H2       HT       0.417000       1.00800           0
     34062 TIP3     3918     TIP3     OH2      OT      -0.834000       15.9994           0
     34063 TIP3     3918     TIP3     H1       HT       0.417000       1.00800           0
     34064 TIP3     3918     TIP3     H2       HT       0.417000       1.00800           0
     34065 TIP3     3919     TIP3     OH2      OT      -0.834000       15.9994           0
     34066 TIP3     3919     TIP3     H1       HT       0.417000       1.00800           0
     34067 TIP3     3919     TIP3     H2       HT       0.417000       1.00800           0
     34068 TIP3     3920     TIP3     OH2      OT      -0.834000       15.9994           0
     34069 TIP3     3920     TIP3     H1       HT       0.417000       1.00800           0
     34070 TIP3     3920     TIP3     H2       HT       0.417000       1.00800           0
     34071 TIP3     3921     TIP3     OH2      OT      -0.834000       15.9994           0
     34072 TIP3     3921     TIP3     H1       HT       0.417000       1.00800           0
     34073 TIP3     3921     TIP3     H2       HT       0.417000       1.00800           0
     34074 TIP3     3922     TIP3     OH2      OT      -0.834000       15.9994           0
     34075 TIP3     3922     TIP3     H1       HT       0.417000       1.00800           0
     34076 TIP3     3922     TIP3     H2       HT       0.417000       1.00800           0
     34077 TIP3     3923     TIP3     OH2      OT      -0.834000       15.9994           0
     34078 TIP3     3923     TIP3     H1       HT       0.417000       1.00800           0
     34079 TIP3     3923     TIP3     H2       HT       0.417000       1.00800           0
     34080 TIP3     3924     TIP3     OH2      OT      -0.834000       15.9994           0
     34081 TIP3     3924     TIP3     H1       HT       0.417000       1.00800           0
     34082 TIP3     3924     TIP3     H2       HT       0.417000       1.00800           0
     34083 TIP3     3925     TIP3     OH2      OT      -0.834000       15.9994           0
     34084 TIP3     3925     TIP3     H1       HT       0.417000       1.00800           0
     34085 TIP3     3925     TIP3     H2       HT       0.417000       1.00800           0
     34086 TIP3     3926     TIP3     OH2      OT      -0.834000       15.9994           0
     34087 TIP3     3926     TIP3     H1       HT       0.417000       1.00800           0
     34088 TIP3     3926     TIP3     H2       HT       0.417000       1.00800           0
     34089 TIP3     3927     TIP3     OH2      OT      -0.834000       15.9994           0
     34090 TIP3     3927     TIP3     H1       HT       0.417000       1.00800           0
     34091 TIP3     3927     TIP3     H2       HT       0.417000       1.00800           0
     34092 TIP3     3928     TIP3     OH2      OT      -0.834000       15.9994           0
     34093 TIP3     3928     TIP3     H1       HT       0.417000       1.00800           0
     34094 TIP3     3928     TIP3     H2       HT       0.417000       1.00800           0
     34095 TIP3     3929     TIP3     OH2      OT      -0.834000       15.9994           0
     34096 TIP3     3929     TIP3     H1       HT       0.417000       1.00800           0
     34097 TIP3     3929     TIP3     H2       HT       0.417000       1.00800           0
     34098 TIP3     3930     TIP3     OH2      OT      -0.834000       15.9994           0
     34099 TIP3     3930     TIP3     H1       HT       0.417000       1.00800           0
     34100 TIP3     3930     TIP3     H2       HT       0.417000       1.00800           0
     34101 TIP3     3931     TIP3     OH2      OT      -0.834000       15.9994           0
     34102 TIP3     3931     TIP3     H1       HT       0.417000       1.00800           0
     34103 TIP3     3931     TIP3     H2       HT       0.417000       1.00800           0
     34104 TIP3     3932     TIP3     OH2      OT      -0.834000       15.9994           0
     34105 TIP3     3932     TIP3     H1       HT       0.417000       1.00800           0
     34106 TIP3     3932     TIP3     H2       HT       0.417000       1.00800           0
     34107 TIP3     3933     TIP3     OH2      OT      -0.834000       15.9994           0
     34108 TIP3     3933     TIP3     H1       HT       0.417000       1.00800           0
     34109 TIP3     3933     TIP3     H2       HT       0.417000       1.00800           0
     34110 TIP3     3934     TIP3     OH2      OT      -0.834000       15.9994           0
     34111 TIP3     3934     TIP3     H1       HT       0.417000       1.00800           0
     34112 TIP3     3934     TIP3     H2       HT       0.417000       1.00800           0
     34113 TIP3     3935     TIP3     OH2      OT      -0.834000       15.9994           0
     34114 TIP3     3935     TIP3     H1       HT       0.417000       1.00800           0
     34115 TIP3     3935     TIP3     H2       HT       0.417000       1.00800           0
     34116 TIP3     3936     TIP3     OH2      OT      -0.834000       15.9994           0
     34117 TIP3     3936     TIP3     H1       HT       0.417000       1.00800           0
     34118 TIP3     3936     TIP3     H2       HT       0.417000       1.00800           0
     34119 TIP3     3937     TIP3     OH2      OT      -0.834000       15.9994           0
     34120 TIP3     3937     TIP3     H1       HT       0.417000       1.00800           0
     34121 TIP3     3937     TIP3     H2       HT       0.417000       1.00800           0
     34122 TIP3     3938     TIP3     OH2      OT      -0.834000       15.9994           0
     34123 TIP3     3938     TIP3     H1       HT       0.417000       1.00800           0
     34124 TIP3     3938     TIP3     H2       HT       0.417000       1.00800           0
     34125 TIP3     3939     TIP3     OH2      OT      -0.834000       15.9994           0
     34126 TIP3     3939     TIP3     H1       HT       0.417000       1.00800           0
     34127 TIP3     3939     TIP3     H2       HT       0.417000       1.00800           0
     34128 TIP3     3940     TIP3     OH2      OT      -0.834000       15.9994           0
     34129 TIP3     3940     TIP3     H1       HT       0.417000       1.00800           0
     34130 TIP3     3940     TIP3     H2       HT       0.417000       1.00800           0
     34131 TIP3     3941     TIP3     OH2      OT      -0.834000       15.9994           0
     34132 TIP3     3941     TIP3     H1       HT       0.417000       1.00800           0
     34133 TIP3     3941     TIP3     H2       HT       0.417000       1.00800           0
     34134 TIP3     3942     TIP3     OH2      OT      -0.834000       15.9994           0
     34135 TIP3     3942     TIP3     H1       HT       0.417000       1.00800           0
     34136 TIP3     3942     TIP3     H2       HT       0.417000       1.00800           0
     34137 TIP3     3943     TIP3     OH2      OT      -0.834000       15.9994           0
     34138 TIP3     3943     TIP3     H1       HT       0.417000       1.00800           0
     34139 TIP3     3943     TIP3     H2       HT       0.417000       1.00800           0
     34140 TIP3     3944     TIP3     OH2      OT      -0.834000       15.9994           0
     34141 TIP3     3944     TIP3     H1       HT       0.417000       1.00800           0
     34142 TIP3     3944     TIP3     H2       HT       0.417000       1.00800           0
     34143 TIP3     3945     TIP3     OH2      OT      -0.834000       15.9994           0
     34144 TIP3     3945     TIP3     H1       HT       0.417000       1.00800           0
     34145 TIP3     3945     TIP3     H2       HT       0.417000       1.00800           0
     34146 TIP3     3946     TIP3     OH2      OT      -0.834000       15.9994           0
     34147 TIP3     3946     TIP3     H1       HT       0.417000       1.00800           0
     34148 TIP3     3946     TIP3     H2       HT       0.417000       1.00800           0
     34149 TIP3     3947     TIP3     OH2      OT      -0.834000       15.9994           0
     34150 TIP3     3947     TIP3     H1       HT       0.417000       1.00800           0
     34151 TIP3     3947     TIP3     H2       HT       0.417000       1.00800           0
     34152 TIP3     3948     TIP3     OH2      OT      -0.834000       15.9994           0
     34153 TIP3     3948     TIP3     H1       HT       0.417000       1.00800           0
     34154 TIP3     3948     TIP3     H2       HT       0.417000       1.00800           0
     34155 TIP3     3949     TIP3     OH2      OT      -0.834000       15.9994           0
     34156 TIP3     3949     TIP3     H1       HT       0.417000       1.00800           0
     34157 TIP3     3949     TIP3     H2       HT       0.417000       1.00800           0
     34158 TIP3     3950     TIP3     OH2      OT      -0.834000       15.9994           0
     34159 TIP3     3950     TIP3     H1       HT       0.417000       1.00800           0
     34160 TIP3     3950     TIP3     H2       HT       0.417000       1.00800           0
     34161 TIP3     3951     TIP3     OH2      OT      -0.834000       15.9994           0
     34162 TIP3     3951     TIP3     H1       HT       0.417000       1.00800           0
     34163 TIP3     3951     TIP3     H2       HT       0.417000       1.00800           0
     34164 TIP3     3952     TIP3     OH2      OT      -0.834000       15.9994           0
     34165 TIP3     3952     TIP3     H1       HT       0.417000       1.00800           0
     34166 TIP3     3952     TIP3     H2       HT       0.417000       1.00800           0
     34167 TIP3     3953     TIP3     OH2      OT      -0.834000       15.9994           0
     34168 TIP3     3953     TIP3     H1       HT       0.417000       1.00800           0
     34169 TIP3     3953     TIP3     H2       HT       0.417000       1.00800           0
     34170 TIP3     3954     TIP3     OH2      OT      -0.834000       15.9994           0
     34171 TIP3     3954     TIP3     H1       HT       0.417000       1.00800           0
     34172 TIP3     3954     TIP3     H2       HT       0.417000       1.00800           0
     34173 TIP3     3955     TIP3     OH2      OT      -0.834000       15.9994           0
     34174 TIP3     3955     TIP3     H1       HT       0.417000       1.00800           0
     34175 TIP3     3955     TIP3     H2       HT       0.417000       1.00800           0
     34176 TIP3     3956     TIP3     OH2      OT      -0.834000       15.9994           0
     34177 TIP3     3956     TIP3     H1       HT       0.417000       1.00800           0
     34178 TIP3     3956     TIP3     H2       HT       0.417000       1.00800           0
     34179 TIP3     3957     TIP3     OH2      OT      -0.834000       15.9994           0
     34180 TIP3     3957     TIP3     H1       HT       0.417000       1.00800           0
     34181 TIP3     3957     TIP3     H2       HT       0.417000       1.00800           0
     34182 TIP3     3958     TIP3     OH2      OT      -0.834000       15.9994           0
     34183 TIP3     3958     TIP3     H1       HT       0.417000       1.00800           0
     34184 TIP3     3958     TIP3     H2       HT       0.417000       1.00800           0
     34185 TIP3     3959     TIP3     OH2      OT      -0.834000       15.9994           0
     34186 TIP3     3959     TIP3     H1       HT       0.417000       1.00800           0
     34187 TIP3     3959     TIP3     H2       HT       0.417000       1.00800           0
     34188 TIP3     3960     TIP3     OH2      OT      -0.834000       15.9994           0
     34189 TIP3     3960     TIP3     H1       HT       0.417000       1.00800           0
     34190 TIP3     3960     TIP3     H2       HT       0.417000       1.00800           0
     34191 TIP3     3961     TIP3     OH2      OT      -0.834000       15.9994           0
     34192 TIP3     3961     TIP3     H1       HT       0.417000       1.00800           0
     34193 TIP3     3961     TIP3     H2       HT       0.417000       1.00800           0
     34194 TIP3     3962     TIP3     OH2      OT      -0.834000       15.9994           0
     34195 TIP3     3962     TIP3     H1       HT       0.417000       1.00800           0
     34196 TIP3     3962     TIP3     H2       HT       0.417000       1.00800           0
     34197 TIP3     3963     TIP3     OH2      OT      -0.834000       15.9994           0
     34198 TIP3     3963     TIP3     H1       HT       0.417000       1.00800           0
     34199 TIP3     3963     TIP3     H2       HT       0.417000       1.00800           0
     34200 TIP3     3964     TIP3     OH2      OT      -0.834000       15.9994           0
     34201 TIP3     3964     TIP3     H1       HT       0.417000       1.00800           0
     34202 TIP3     3964     TIP3     H2       HT       0.417000       1.00800           0
     34203 TIP3     3965     TIP3     OH2      OT      -0.834000       15.9994           0
     34204 TIP3     3965     TIP3     H1       HT       0.417000       1.00800           0
     34205 TIP3     3965     TIP3     H2       HT       0.417000       1.00800           0
     34206 TIP3     3966     TIP3     OH2      OT      -0.834000       15.9994           0
     34207 TIP3     3966     TIP3     H1       HT       0.417000       1.00800           0
     34208 TIP3     3966     TIP3     H2       HT       0.417000       1.00800           0
     34209 TIP3     3967     TIP3     OH2      OT      -0.834000       15.9994           0
     34210 TIP3     3967     TIP3     H1       HT       0.417000       1.00800           0
     34211 TIP3     3967     TIP3     H2       HT       0.417000       1.00800           0
     34212 TIP3     3968     TIP3     OH2      OT      -0.834000       15.9994           0
     34213 TIP3     3968     TIP3     H1       HT       0.417000       1.00800           0
     34214 TIP3     3968     TIP3     H2       HT       0.417000       1.00800           0
     34215 TIP3     3969     TIP3     OH2      OT      -0.834000       15.9994           0
     34216 TIP3     3969     TIP3     H1       HT       0.417000       1.00800           0
     34217 TIP3     3969     TIP3     H2       HT       0.417000       1.00800           0
     34218 TIP3     3970     TIP3     OH2      OT      -0.834000       15.9994           0
     34219 TIP3     3970     TIP3     H1       HT       0.417000       1.00800           0
     34220 TIP3     3970     TIP3     H2       HT       0.417000       1.00800           0
     34221 TIP3     3971     TIP3     OH2      OT      -0.834000       15.9994           0
     34222 TIP3     3971     TIP3     H1       HT       0.417000       1.00800           0
     34223 TIP3     3971     TIP3     H2       HT       0.417000       1.00800           0
     34224 TIP3     3972     TIP3     OH2      OT      -0.834000       15.9994           0
     34225 TIP3     3972     TIP3     H1       HT       0.417000       1.00800           0
     34226 TIP3     3972     TIP3     H2       HT       0.417000       1.00800           0
     34227 TIP3     3973     TIP3     OH2      OT      -0.834000       15.9994           0
     34228 TIP3     3973     TIP3     H1       HT       0.417000       1.00800           0
     34229 TIP3     3973     TIP3     H2       HT       0.417000       1.00800           0
     34230 TIP3     3974     TIP3     OH2      OT      -0.834000       15.9994           0
     34231 TIP3     3974     TIP3     H1       HT       0.417000       1.00800           0
     34232 TIP3     3974     TIP3     H2       HT       0.417000       1.00800           0
     34233 TIP3     3975     TIP3     OH2      OT      -0.834000       15.9994           0
     34234 TIP3     3975     TIP3     H1       HT       0.417000       1.00800           0
     34235 TIP3     3975     TIP3     H2       HT       0.417000       1.00800           0
     34236 TIP3     3976     TIP3     OH2      OT      -0.834000       15.9994           0
     34237 TIP3     3976     TIP3     H1       HT       0.417000       1.00800           0
     34238 TIP3     3976     TIP3     H2       HT       0.417000       1.00800           0
     34239 TIP3     3977     TIP3     OH2      OT      -0.834000       15.9994           0
     34240 TIP3     3977     TIP3     H1       HT       0.417000       1.00800           0
     34241 TIP3     3977     TIP3     H2       HT       0.417000       1.00800           0
     34242 TIP3     3978     TIP3     OH2      OT      -0.834000       15.9994           0
     34243 TIP3     3978     TIP3     H1       HT       0.417000       1.00800           0
     34244 TIP3     3978     TIP3     H2       HT       0.417000       1.00800           0
     34245 TIP3     3979     TIP3     OH2      OT      -0.834000       15.9994           0
     34246 TIP3     3979     TIP3     H1       HT       0.417000       1.00800           0
     34247 TIP3     3979     TIP3     H2       HT       0.417000       1.00800           0
     34248 TIP3     3980     TIP3     OH2      OT      -0.834000       15.9994           0
     34249 TIP3     3980     TIP3     H1       HT       0.417000       1.00800           0
     34250 TIP3     3980     TIP3     H2       HT       0.417000       1.00800           0
     34251 TIP3     3981     TIP3     OH2      OT      -0.834000       15.9994           0
     34252 TIP3     3981     TIP3     H1       HT       0.417000       1.00800           0
     34253 TIP3     3981     TIP3     H2       HT       0.417000       1.00800           0
     34254 TIP3     3982     TIP3     OH2      OT      -0.834000       15.9994           0
     34255 TIP3     3982     TIP3     H1       HT       0.417000       1.00800           0
     34256 TIP3     3982     TIP3     H2       HT       0.417000       1.00800           0
     34257 TIP3     3983     TIP3     OH2      OT      -0.834000       15.9994           0
     34258 TIP3     3983     TIP3     H1       HT       0.417000       1.00800           0
     34259 TIP3     3983     TIP3     H2       HT       0.417000       1.00800           0
     34260 TIP3     3984     TIP3     OH2      OT      -0.834000       15.9994           0
     34261 TIP3     3984     TIP3     H1       HT       0.417000       1.00800           0
     34262 TIP3     3984     TIP3     H2       HT       0.417000       1.00800           0
     34263 TIP3     3985     TIP3     OH2      OT      -0.834000       15.9994           0
     34264 TIP3     3985     TIP3     H1       HT       0.417000       1.00800           0
     34265 TIP3     3985     TIP3     H2       HT       0.417000       1.00800           0
     34266 TIP3     3986     TIP3     OH2      OT      -0.834000       15.9994           0
     34267 TIP3     3986     TIP3     H1       HT       0.417000       1.00800           0
     34268 TIP3     3986     TIP3     H2       HT       0.417000       1.00800           0
     34269 TIP3     3987     TIP3     OH2      OT      -0.834000       15.9994           0
     34270 TIP3     3987     TIP3     H1       HT       0.417000       1.00800           0
     34271 TIP3     3987     TIP3     H2       HT       0.417000       1.00800           0
     34272 TIP3     3988     TIP3     OH2      OT      -0.834000       15.9994           0
     34273 TIP3     3988     TIP3     H1       HT       0.417000       1.00800           0
     34274 TIP3     3988     TIP3     H2       HT       0.417000       1.00800           0
     34275 TIP3     3989     TIP3     OH2      OT      -0.834000       15.9994           0
     34276 TIP3     3989     TIP3     H1       HT       0.417000       1.00800           0
     34277 TIP3     3989     TIP3     H2       HT       0.417000       1.00800           0
     34278 TIP3     3990     TIP3     OH2      OT      -0.834000       15.9994           0
     34279 TIP3     3990     TIP3     H1       HT       0.417000       1.00800           0
     34280 TIP3     3990     TIP3     H2       HT       0.417000       1.00800           0
     34281 TIP3     3991     TIP3     OH2      OT      -0.834000       15.9994           0
     34282 TIP3     3991     TIP3     H1       HT       0.417000       1.00800           0
     34283 TIP3     3991     TIP3     H2       HT       0.417000       1.00800           0
     34284 TIP3     3992     TIP3     OH2      OT      -0.834000       15.9994           0
     34285 TIP3     3992     TIP3     H1       HT       0.417000       1.00800           0
     34286 TIP3     3992     TIP3     H2       HT       0.417000       1.00800           0
     34287 TIP3     3993     TIP3     OH2      OT      -0.834000       15.9994           0
     34288 TIP3     3993     TIP3     H1       HT       0.417000       1.00800           0
     34289 TIP3     3993     TIP3     H2       HT       0.417000       1.00800           0
     34290 TIP3     3994     TIP3     OH2      OT      -0.834000       15.9994           0
     34291 TIP3     3994     TIP3     H1       HT       0.417000       1.00800           0
     34292 TIP3     3994     TIP3     H2       HT       0.417000       1.00800           0
     34293 TIP3     3995     TIP3     OH2      OT      -0.834000       15.9994           0
     34294 TIP3     3995     TIP3     H1       HT       0.417000       1.00800           0
     34295 TIP3     3995     TIP3     H2       HT       0.417000       1.00800           0
     34296 TIP3     3996     TIP3     OH2      OT      -0.834000       15.9994           0
     34297 TIP3     3996     TIP3     H1       HT       0.417000       1.00800           0
     34298 TIP3     3996     TIP3     H2       HT       0.417000       1.00800           0
     34299 TIP3     3997     TIP3     OH2      OT      -0.834000       15.9994           0
     34300 TIP3     3997     TIP3     H1       HT       0.417000       1.00800           0
     34301 TIP3     3997     TIP3     H2       HT       0.417000       1.00800           0
     34302 TIP3     3998     TIP3     OH2      OT      -0.834000       15.9994           0
     34303 TIP3     3998     TIP3     H1       HT       0.417000       1.00800           0
     34304 TIP3     3998     TIP3     H2       HT       0.417000       1.00800           0
     34305 TIP3     3999     TIP3     OH2      OT      -0.834000       15.9994           0
     34306 TIP3     3999     TIP3     H1       HT       0.417000       1.00800           0
     34307 TIP3     3999     TIP3     H2       HT       0.417000       1.00800           0
     34308 TIP3     4000     TIP3     OH2      OT      -0.834000       15.9994           0
     34309 TIP3     4000     TIP3     H1       HT       0.417000       1.00800           0
     34310 TIP3     4000     TIP3     H2       HT       0.417000       1.00800           0
     34311 TIP3     4001     TIP3     OH2      OT      -0.834000       15.9994           0
     34312 TIP3     4001     TIP3     H1       HT       0.417000       1.00800           0
     34313 TIP3     4001     TIP3     H2       HT       0.417000       1.00800           0
     34314 TIP3     4002     TIP3     OH2      OT      -0.834000       15.9994           0
     34315 TIP3     4002     TIP3     H1       HT       0.417000       1.00800           0
     34316 TIP3     4002     TIP3     H2       HT       0.417000       1.00800           0
     34317 TIP3     4003     TIP3     OH2      OT      -0.834000       15.9994           0
     34318 TIP3     4003     TIP3     H1       HT       0.417000       1.00800           0
     34319 TIP3     4003     TIP3     H2       HT       0.417000       1.00800           0
     34320 TIP3     4004     TIP3     OH2      OT      -0.834000       15.9994           0
     34321 TIP3     4004     TIP3     H1       HT       0.417000       1.00800           0
     34322 TIP3     4004     TIP3     H2       HT       0.417000       1.00800           0
     34323 TIP3     4005     TIP3     OH2      OT      -0.834000       15.9994           0
     34324 TIP3     4005     TIP3     H1       HT       0.417000       1.00800           0
     34325 TIP3     4005     TIP3     H2       HT       0.417000       1.00800           0
     34326 TIP3     4006     TIP3     OH2      OT      -0.834000       15.9994           0
     34327 TIP3     4006     TIP3     H1       HT       0.417000       1.00800           0
     34328 TIP3     4006     TIP3     H2       HT       0.417000       1.00800           0
     34329 TIP3     4007     TIP3     OH2      OT      -0.834000       15.9994           0
     34330 TIP3     4007     TIP3     H1       HT       0.417000       1.00800           0
     34331 TIP3     4007     TIP3     H2       HT       0.417000       1.00800           0
     34332 TIP3     4008     TIP3     OH2      OT      -0.834000       15.9994           0
     34333 TIP3     4008     TIP3     H1       HT       0.417000       1.00800           0
     34334 TIP3     4008     TIP3     H2       HT       0.417000       1.00800           0
     34335 TIP3     4009     TIP3     OH2      OT      -0.834000       15.9994           0
     34336 TIP3     4009     TIP3     H1       HT       0.417000       1.00800           0
     34337 TIP3     4009     TIP3     H2       HT       0.417000       1.00800           0
     34338 TIP3     4010     TIP3     OH2      OT      -0.834000       15.9994           0
     34339 TIP3     4010     TIP3     H1       HT       0.417000       1.00800           0
     34340 TIP3     4010     TIP3     H2       HT       0.417000       1.00800           0
     34341 TIP3     4011     TIP3     OH2      OT      -0.834000       15.9994           0
     34342 TIP3     4011     TIP3     H1       HT       0.417000       1.00800           0
     34343 TIP3     4011     TIP3     H2       HT       0.417000       1.00800           0
     34344 TIP3     4012     TIP3     OH2      OT      -0.834000       15.9994           0
     34345 TIP3     4012     TIP3     H1       HT       0.417000       1.00800           0
     34346 TIP3     4012     TIP3     H2       HT       0.417000       1.00800           0
     34347 TIP3     4013     TIP3     OH2      OT      -0.834000       15.9994           0
     34348 TIP3     4013     TIP3     H1       HT       0.417000       1.00800           0
     34349 TIP3     4013     TIP3     H2       HT       0.417000       1.00800           0
     34350 TIP3     4014     TIP3     OH2      OT      -0.834000       15.9994           0
     34351 TIP3     4014     TIP3     H1       HT       0.417000       1.00800           0
     34352 TIP3     4014     TIP3     H2       HT       0.417000       1.00800           0
     34353 TIP3     4015     TIP3     OH2      OT      -0.834000       15.9994           0
     34354 TIP3     4015     TIP3     H1       HT       0.417000       1.00800           0
     34355 TIP3     4015     TIP3     H2       HT       0.417000       1.00800           0
     34356 TIP3     4016     TIP3     OH2      OT      -0.834000       15.9994           0
     34357 TIP3     4016     TIP3     H1       HT       0.417000       1.00800           0
     34358 TIP3     4016     TIP3     H2       HT       0.417000       1.00800           0
     34359 TIP3     4017     TIP3     OH2      OT      -0.834000       15.9994           0
     34360 TIP3     4017     TIP3     H1       HT       0.417000       1.00800           0
     34361 TIP3     4017     TIP3     H2       HT       0.417000       1.00800           0
     34362 TIP3     4018     TIP3     OH2      OT      -0.834000       15.9994           0
     34363 TIP3     4018     TIP3     H1       HT       0.417000       1.00800           0
     34364 TIP3     4018     TIP3     H2       HT       0.417000       1.00800           0
     34365 TIP3     4019     TIP3     OH2      OT      -0.834000       15.9994           0
     34366 TIP3     4019     TIP3     H1       HT       0.417000       1.00800           0
     34367 TIP3     4019     TIP3     H2       HT       0.417000       1.00800           0
     34368 TIP3     4020     TIP3     OH2      OT      -0.834000       15.9994           0
     34369 TIP3     4020     TIP3     H1       HT       0.417000       1.00800           0
     34370 TIP3     4020     TIP3     H2       HT       0.417000       1.00800           0
     34371 TIP3     4021     TIP3     OH2      OT      -0.834000       15.9994           0
     34372 TIP3     4021     TIP3     H1       HT       0.417000       1.00800           0
     34373 TIP3     4021     TIP3     H2       HT       0.417000       1.00800           0
     34374 TIP3     4022     TIP3     OH2      OT      -0.834000       15.9994           0
     34375 TIP3     4022     TIP3     H1       HT       0.417000       1.00800           0
     34376 TIP3     4022     TIP3     H2       HT       0.417000       1.00800           0
     34377 TIP3     4023     TIP3     OH2      OT      -0.834000       15.9994           0
     34378 TIP3     4023     TIP3     H1       HT       0.417000       1.00800           0
     34379 TIP3     4023     TIP3     H2       HT       0.417000       1.00800           0
     34380 TIP3     4024     TIP3     OH2      OT      -0.834000       15.9994           0
     34381 TIP3     4024     TIP3     H1       HT       0.417000       1.00800           0
     34382 TIP3     4024     TIP3     H2       HT       0.417000       1.00800           0
     34383 TIP3     4025     TIP3     OH2      OT      -0.834000       15.9994           0
     34384 TIP3     4025     TIP3     H1       HT       0.417000       1.00800           0
     34385 TIP3     4025     TIP3     H2       HT       0.417000       1.00800           0
     34386 TIP3     4026     TIP3     OH2      OT      -0.834000       15.9994           0
     34387 TIP3     4026     TIP3     H1       HT       0.417000       1.00800           0
     34388 TIP3     4026     TIP3     H2       HT       0.417000       1.00800           0
     34389 TIP3     4027     TIP3     OH2      OT      -0.834000       15.9994           0
     34390 TIP3     4027     TIP3     H1       HT       0.417000       1.00800           0
     34391 TIP3     4027     TIP3     H2       HT       0.417000       1.00800           0
     34392 TIP3     4028     TIP3     OH2      OT      -0.834000       15.9994           0
     34393 TIP3     4028     TIP3     H1       HT       0.417000       1.00800           0
     34394 TIP3     4028     TIP3     H2       HT       0.417000       1.00800           0
     34395 TIP3     4029     TIP3     OH2      OT      -0.834000       15.9994           0
     34396 TIP3     4029     TIP3     H1       HT       0.417000       1.00800           0
     34397 TIP3     4029     TIP3     H2       HT       0.417000       1.00800           0
     34398 TIP3     4030     TIP3     OH2      OT      -0.834000       15.9994           0
     34399 TIP3     4030     TIP3     H1       HT       0.417000       1.00800           0
     34400 TIP3     4030     TIP3     H2       HT       0.417000       1.00800           0
     34401 TIP3     4031     TIP3     OH2      OT      -0.834000       15.9994           0
     34402 TIP3     4031     TIP3     H1       HT       0.417000       1.00800           0
     34403 TIP3     4031     TIP3     H2       HT       0.417000       1.00800           0
     34404 TIP3     4032     TIP3     OH2      OT      -0.834000       15.9994           0
     34405 TIP3     4032     TIP3     H1       HT       0.417000       1.00800           0
     34406 TIP3     4032     TIP3     H2       HT       0.417000       1.00800           0
     34407 TIP3     4033     TIP3     OH2      OT      -0.834000       15.9994           0
     34408 TIP3     4033     TIP3     H1       HT       0.417000       1.00800           0
     34409 TIP3     4033     TIP3     H2       HT       0.417000       1.00800           0
     34410 TIP3     4034     TIP3     OH2      OT      -0.834000       15.9994           0
     34411 TIP3     4034     TIP3     H1       HT       0.417000       1.00800           0
     34412 TIP3     4034     TIP3     H2       HT       0.417000       1.00800           0
     34413 TIP3     4035     TIP3     OH2      OT      -0.834000       15.9994           0
     34414 TIP3     4035     TIP3     H1       HT       0.417000       1.00800           0
     34415 TIP3     4035     TIP3     H2       HT       0.417000       1.00800           0
     34416 TIP3     4036     TIP3     OH2      OT      -0.834000       15.9994           0
     34417 TIP3     4036     TIP3     H1       HT       0.417000       1.00800           0
     34418 TIP3     4036     TIP3     H2       HT       0.417000       1.00800           0
     34419 TIP3     4037     TIP3     OH2      OT      -0.834000       15.9994           0
     34420 TIP3     4037     TIP3     H1       HT       0.417000       1.00800           0
     34421 TIP3     4037     TIP3     H2       HT       0.417000       1.00800           0
     34422 TIP3     4038     TIP3     OH2      OT      -0.834000       15.9994           0
     34423 TIP3     4038     TIP3     H1       HT       0.417000       1.00800           0
     34424 TIP3     4038     TIP3     H2       HT       0.417000       1.00800           0
     34425 TIP3     4039     TIP3     OH2      OT      -0.834000       15.9994           0
     34426 TIP3     4039     TIP3     H1       HT       0.417000       1.00800           0
     34427 TIP3     4039     TIP3     H2       HT       0.417000       1.00800           0
     34428 TIP3     4040     TIP3     OH2      OT      -0.834000       15.9994           0
     34429 TIP3     4040     TIP3     H1       HT       0.417000       1.00800           0
     34430 TIP3     4040     TIP3     H2       HT       0.417000       1.00800           0
     34431 TIP3     4041     TIP3     OH2      OT      -0.834000       15.9994           0
     34432 TIP3     4041     TIP3     H1       HT       0.417000       1.00800           0
     34433 TIP3     4041     TIP3     H2       HT       0.417000       1.00800           0
     34434 TIP3     4042     TIP3     OH2      OT      -0.834000       15.9994           0
     34435 TIP3     4042     TIP3     H1       HT       0.417000       1.00800           0
     34436 TIP3     4042     TIP3     H2       HT       0.417000       1.00800           0
     34437 TIP3     4043     TIP3     OH2      OT      -0.834000       15.9994           0
     34438 TIP3     4043     TIP3     H1       HT       0.417000       1.00800           0
     34439 TIP3     4043     TIP3     H2       HT       0.417000       1.00800           0
     34440 TIP3     4044     TIP3     OH2      OT      -0.834000       15.9994           0
     34441 TIP3     4044     TIP3     H1       HT       0.417000       1.00800           0
     34442 TIP3     4044     TIP3     H2       HT       0.417000       1.00800           0
     34443 TIP3     4045     TIP3     OH2      OT      -0.834000       15.9994           0
     34444 TIP3     4045     TIP3     H1       HT       0.417000       1.00800           0
     34445 TIP3     4045     TIP3     H2       HT       0.417000       1.00800           0
     34446 TIP3     4046     TIP3     OH2      OT      -0.834000       15.9994           0
     34447 TIP3     4046     TIP3     H1       HT       0.417000       1.00800           0
     34448 TIP3     4046     TIP3     H2       HT       0.417000       1.00800           0
     34449 TIP3     4047     TIP3     OH2      OT      -0.834000       15.9994           0
     34450 TIP3     4047     TIP3     H1       HT       0.417000       1.00800           0
     34451 TIP3     4047     TIP3     H2       HT       0.417000       1.00800           0
     34452 TIP3     4048     TIP3     OH2      OT      -0.834000       15.9994           0
     34453 TIP3     4048     TIP3     H1       HT       0.417000       1.00800           0
     34454 TIP3     4048     TIP3     H2       HT       0.417000       1.00800           0
     34455 TIP3     4049     TIP3     OH2      OT      -0.834000       15.9994           0
     34456 TIP3     4049     TIP3     H1       HT       0.417000       1.00800           0
     34457 TIP3     4049     TIP3     H2       HT       0.417000       1.00800           0
     34458 TIP3     4050     TIP3     OH2      OT      -0.834000       15.9994           0
     34459 TIP3     4050     TIP3     H1       HT       0.417000       1.00800           0
     34460 TIP3     4050     TIP3     H2       HT       0.417000       1.00800           0
     34461 TIP3     4051     TIP3     OH2      OT      -0.834000       15.9994           0
     34462 TIP3     4051     TIP3     H1       HT       0.417000       1.00800           0
     34463 TIP3     4051     TIP3     H2       HT       0.417000       1.00800           0
     34464 TIP3     4052     TIP3     OH2      OT      -0.834000       15.9994           0
     34465 TIP3     4052     TIP3     H1       HT       0.417000       1.00800           0
     34466 TIP3     4052     TIP3     H2       HT       0.417000       1.00800           0
     34467 TIP3     4053     TIP3     OH2      OT      -0.834000       15.9994           0
     34468 TIP3     4053     TIP3     H1       HT       0.417000       1.00800           0
     34469 TIP3     4053     TIP3     H2       HT       0.417000       1.00800           0
     34470 TIP3     4054     TIP3     OH2      OT      -0.834000       15.9994           0
     34471 TIP3     4054     TIP3     H1       HT       0.417000       1.00800           0
     34472 TIP3     4054     TIP3     H2       HT       0.417000       1.00800           0
     34473 TIP3     4055     TIP3     OH2      OT      -0.834000       15.9994           0
     34474 TIP3     4055     TIP3     H1       HT       0.417000       1.00800           0
     34475 TIP3     4055     TIP3     H2       HT       0.417000       1.00800           0
     34476 TIP3     4056     TIP3     OH2      OT      -0.834000       15.9994           0
     34477 TIP3     4056     TIP3     H1       HT       0.417000       1.00800           0
     34478 TIP3     4056     TIP3     H2       HT       0.417000       1.00800           0
     34479 TIP3     4057     TIP3     OH2      OT      -0.834000       15.9994           0
     34480 TIP3     4057     TIP3     H1       HT       0.417000       1.00800           0
     34481 TIP3     4057     TIP3     H2       HT       0.417000       1.00800           0
     34482 TIP3     4058     TIP3     OH2      OT      -0.834000       15.9994           0
     34483 TIP3     4058     TIP3     H1       HT       0.417000       1.00800           0
     34484 TIP3     4058     TIP3     H2       HT       0.417000       1.00800           0
     34485 TIP3     4059     TIP3     OH2      OT      -0.834000       15.9994           0
     34486 TIP3     4059     TIP3     H1       HT       0.417000       1.00800           0
     34487 TIP3     4059     TIP3     H2       HT       0.417000       1.00800           0
     34488 TIP3     4060     TIP3     OH2      OT      -0.834000       15.9994           0
     34489 TIP3     4060     TIP3     H1       HT       0.417000       1.00800           0
     34490 TIP3     4060     TIP3     H2       HT       0.417000       1.00800           0
     34491 TIP3     4061     TIP3     OH2      OT      -0.834000       15.9994           0
     34492 TIP3     4061     TIP3     H1       HT       0.417000       1.00800           0
     34493 TIP3     4061     TIP3     H2       HT       0.417000       1.00800           0
     34494 TIP3     4062     TIP3     OH2      OT      -0.834000       15.9994           0
     34495 TIP3     4062     TIP3     H1       HT       0.417000       1.00800           0
     34496 TIP3     4062     TIP3     H2       HT       0.417000       1.00800           0
     34497 TIP3     4063     TIP3     OH2      OT      -0.834000       15.9994           0
     34498 TIP3     4063     TIP3     H1       HT       0.417000       1.00800           0
     34499 TIP3     4063     TIP3     H2       HT       0.417000       1.00800           0
     34500 TIP3     4064     TIP3     OH2      OT      -0.834000       15.9994           0
     34501 TIP3     4064     TIP3     H1       HT       0.417000       1.00800           0
     34502 TIP3     4064     TIP3     H2       HT       0.417000       1.00800           0
     34503 TIP3     4065     TIP3     OH2      OT      -0.834000       15.9994           0
     34504 TIP3     4065     TIP3     H1       HT       0.417000       1.00800           0
     34505 TIP3     4065     TIP3     H2       HT       0.417000       1.00800           0
     34506 TIP3     4066     TIP3     OH2      OT      -0.834000       15.9994           0
     34507 TIP3     4066     TIP3     H1       HT       0.417000       1.00800           0
     34508 TIP3     4066     TIP3     H2       HT       0.417000       1.00800           0
     34509 TIP3     4067     TIP3     OH2      OT      -0.834000       15.9994           0
     34510 TIP3     4067     TIP3     H1       HT       0.417000       1.00800           0
     34511 TIP3     4067     TIP3     H2       HT       0.417000       1.00800           0
     34512 TIP3     4068     TIP3     OH2      OT      -0.834000       15.9994           0
     34513 TIP3     4068     TIP3     H1       HT       0.417000       1.00800           0
     34514 TIP3     4068     TIP3     H2       HT       0.417000       1.00800           0
     34515 TIP3     4069     TIP3     OH2      OT      -0.834000       15.9994           0
     34516 TIP3     4069     TIP3     H1       HT       0.417000       1.00800           0
     34517 TIP3     4069     TIP3     H2       HT       0.417000       1.00800           0
     34518 TIP3     4070     TIP3     OH2      OT      -0.834000       15.9994           0
     34519 TIP3     4070     TIP3     H1       HT       0.417000       1.00800           0
     34520 TIP3     4070     TIP3     H2       HT       0.417000       1.00800           0
     34521 TIP3     4071     TIP3     OH2      OT      -0.834000       15.9994           0
     34522 TIP3     4071     TIP3     H1       HT       0.417000       1.00800           0
     34523 TIP3     4071     TIP3     H2       HT       0.417000       1.00800           0
     34524 TIP3     4072     TIP3     OH2      OT      -0.834000       15.9994           0
     34525 TIP3     4072     TIP3     H1       HT       0.417000       1.00800           0
     34526 TIP3     4072     TIP3     H2       HT       0.417000       1.00800           0
     34527 TIP3     4073     TIP3     OH2      OT      -0.834000       15.9994           0
     34528 TIP3     4073     TIP3     H1       HT       0.417000       1.00800           0
     34529 TIP3     4073     TIP3     H2       HT       0.417000       1.00800           0
     34530 TIP3     4074     TIP3     OH2      OT      -0.834000       15.9994           0
     34531 TIP3     4074     TIP3     H1       HT       0.417000       1.00800           0
     34532 TIP3     4074     TIP3     H2       HT       0.417000       1.00800           0
     34533 TIP3     4075     TIP3     OH2      OT      -0.834000       15.9994           0
     34534 TIP3     4075     TIP3     H1       HT       0.417000       1.00800           0
     34535 TIP3     4075     TIP3     H2       HT       0.417000       1.00800           0
     34536 TIP3     4076     TIP3     OH2      OT      -0.834000       15.9994           0
     34537 TIP3     4076     TIP3     H1       HT       0.417000       1.00800           0
     34538 TIP3     4076     TIP3     H2       HT       0.417000       1.00800           0
     34539 TIP3     4077     TIP3     OH2      OT      -0.834000       15.9994           0
     34540 TIP3     4077     TIP3     H1       HT       0.417000       1.00800           0
     34541 TIP3     4077     TIP3     H2       HT       0.417000       1.00800           0
     34542 TIP3     4078     TIP3     OH2      OT      -0.834000       15.9994           0
     34543 TIP3     4078     TIP3     H1       HT       0.417000       1.00800           0
     34544 TIP3     4078     TIP3     H2       HT       0.417000       1.00800           0
     34545 TIP3     4079     TIP3     OH2      OT      -0.834000       15.9994           0
     34546 TIP3     4079     TIP3     H1       HT       0.417000       1.00800           0
     34547 TIP3     4079     TIP3     H2       HT       0.417000       1.00800           0
     34548 TIP3     4080     TIP3     OH2      OT      -0.834000       15.9994           0
     34549 TIP3     4080     TIP3     H1       HT       0.417000       1.00800           0
     34550 TIP3     4080     TIP3     H2       HT       0.417000       1.00800           0
     34551 TIP3     4081     TIP3     OH2      OT      -0.834000       15.9994           0
     34552 TIP3     4081     TIP3     H1       HT       0.417000       1.00800           0
     34553 TIP3     4081     TIP3     H2       HT       0.417000       1.00800           0
     34554 TIP3     4082     TIP3     OH2      OT      -0.834000       15.9994           0
     34555 TIP3     4082     TIP3     H1       HT       0.417000       1.00800           0
     34556 TIP3     4082     TIP3     H2       HT       0.417000       1.00800           0
     34557 TIP3     4083     TIP3     OH2      OT      -0.834000       15.9994           0
     34558 TIP3     4083     TIP3     H1       HT       0.417000       1.00800           0
     34559 TIP3     4083     TIP3     H2       HT       0.417000       1.00800           0
     34560 TIP3     4084     TIP3     OH2      OT      -0.834000       15.9994           0
     34561 TIP3     4084     TIP3     H1       HT       0.417000       1.00800           0
     34562 TIP3     4084     TIP3     H2       HT       0.417000       1.00800           0
     34563 TIP3     4085     TIP3     OH2      OT      -0.834000       15.9994           0
     34564 TIP3     4085     TIP3     H1       HT       0.417000       1.00800           0
     34565 TIP3     4085     TIP3     H2       HT       0.417000       1.00800           0
     34566 TIP3     4086     TIP3     OH2      OT      -0.834000       15.9994           0
     34567 TIP3     4086     TIP3     H1       HT       0.417000       1.00800           0
     34568 TIP3     4086     TIP3     H2       HT       0.417000       1.00800           0
     34569 TIP3     4087     TIP3     OH2      OT      -0.834000       15.9994           0
     34570 TIP3     4087     TIP3     H1       HT       0.417000       1.00800           0
     34571 TIP3     4087     TIP3     H2       HT       0.417000       1.00800           0
     34572 TIP3     4088     TIP3     OH2      OT      -0.834000       15.9994           0
     34573 TIP3     4088     TIP3     H1       HT       0.417000       1.00800           0
     34574 TIP3     4088     TIP3     H2       HT       0.417000       1.00800           0
     34575 TIP3     4089     TIP3     OH2      OT      -0.834000       15.9994           0
     34576 TIP3     4089     TIP3     H1       HT       0.417000       1.00800           0
     34577 TIP3     4089     TIP3     H2       HT       0.417000       1.00800           0
     34578 TIP3     4090     TIP3     OH2      OT      -0.834000       15.9994           0
     34579 TIP3     4090     TIP3     H1       HT       0.417000       1.00800           0
     34580 TIP3     4090     TIP3     H2       HT       0.417000       1.00800           0
     34581 TIP3     4091     TIP3     OH2      OT      -0.834000       15.9994           0
     34582 TIP3     4091     TIP3     H1       HT       0.417000       1.00800           0
     34583 TIP3     4091     TIP3     H2       HT       0.417000       1.00800           0
     34584 TIP3     4092     TIP3     OH2      OT      -0.834000       15.9994           0
     34585 TIP3     4092     TIP3     H1       HT       0.417000       1.00800           0
     34586 TIP3     4092     TIP3     H2       HT       0.417000       1.00800           0
     34587 TIP3     4093     TIP3     OH2      OT      -0.834000       15.9994           0
     34588 TIP3     4093     TIP3     H1       HT       0.417000       1.00800           0
     34589 TIP3     4093     TIP3     H2       HT       0.417000       1.00800           0
     34590 TIP3     4094     TIP3     OH2      OT      -0.834000       15.9994           0
     34591 TIP3     4094     TIP3     H1       HT       0.417000       1.00800           0
     34592 TIP3     4094     TIP3     H2       HT       0.417000       1.00800           0
     34593 TIP3     4095     TIP3     OH2      OT      -0.834000       15.9994           0
     34594 TIP3     4095     TIP3     H1       HT       0.417000       1.00800           0
     34595 TIP3     4095     TIP3     H2       HT       0.417000       1.00800           0
     34596 TIP3     4096     TIP3     OH2      OT      -0.834000       15.9994           0
     34597 TIP3     4096     TIP3     H1       HT       0.417000       1.00800           0
     34598 TIP3     4096     TIP3     H2       HT       0.417000       1.00800           0
     34599 TIP3     4097     TIP3     OH2      OT      -0.834000       15.9994           0
     34600 TIP3     4097     TIP3     H1       HT       0.417000       1.00800           0
     34601 TIP3     4097     TIP3     H2       HT       0.417000       1.00800           0
     34602 TIP3     4098     TIP3     OH2      OT      -0.834000       15.9994           0
     34603 TIP3     4098     TIP3     H1       HT       0.417000       1.00800           0
     34604 TIP3     4098     TIP3     H2       HT       0.417000       1.00800           0
     34605 TIP3     4099     TIP3     OH2      OT      -0.834000       15.9994           0
     34606 TIP3     4099     TIP3     H1       HT       0.417000       1.00800           0
     34607 TIP3     4099     TIP3     H2       HT       0.417000       1.00800           0
     34608 TIP3     4100     TIP3     OH2      OT      -0.834000       15.9994           0
     34609 TIP3     4100     TIP3     H1       HT       0.417000       1.00800           0
     34610 TIP3     4100     TIP3     H2       HT       0.417000       1.00800           0
     34611 TIP3     4101     TIP3     OH2      OT      -0.834000       15.9994           0
     34612 TIP3     4101     TIP3     H1       HT       0.417000       1.00800           0
     34613 TIP3     4101     TIP3     H2       HT       0.417000       1.00800           0
     34614 TIP3     4102     TIP3     OH2      OT      -0.834000       15.9994           0
     34615 TIP3     4102     TIP3     H1       HT       0.417000       1.00800           0
     34616 TIP3     4102     TIP3     H2       HT       0.417000       1.00800           0
     34617 TIP3     4103     TIP3     OH2      OT      -0.834000       15.9994           0
     34618 TIP3     4103     TIP3     H1       HT       0.417000       1.00800           0
     34619 TIP3     4103     TIP3     H2       HT       0.417000       1.00800           0
     34620 TIP3     4104     TIP3     OH2      OT      -0.834000       15.9994           0
     34621 TIP3     4104     TIP3     H1       HT       0.417000       1.00800           0
     34622 TIP3     4104     TIP3     H2       HT       0.417000       1.00800           0
     34623 TIP3     4105     TIP3     OH2      OT      -0.834000       15.9994           0
     34624 TIP3     4105     TIP3     H1       HT       0.417000       1.00800           0
     34625 TIP3     4105     TIP3     H2       HT       0.417000       1.00800           0
     34626 TIP3     4106     TIP3     OH2      OT      -0.834000       15.9994           0
     34627 TIP3     4106     TIP3     H1       HT       0.417000       1.00800           0
     34628 TIP3     4106     TIP3     H2       HT       0.417000       1.00800           0
     34629 TIP3     4107     TIP3     OH2      OT      -0.834000       15.9994           0
     34630 TIP3     4107     TIP3     H1       HT       0.417000       1.00800           0
     34631 TIP3     4107     TIP3     H2       HT       0.417000       1.00800           0
     34632 TIP3     4108     TIP3     OH2      OT      -0.834000       15.9994           0
     34633 TIP3     4108     TIP3     H1       HT       0.417000       1.00800           0
     34634 TIP3     4108     TIP3     H2       HT       0.417000       1.00800           0
     34635 TIP3     4109     TIP3     OH2      OT      -0.834000       15.9994           0
     34636 TIP3     4109     TIP3     H1       HT       0.417000       1.00800           0
     34637 TIP3     4109     TIP3     H2       HT       0.417000       1.00800           0
     34638 TIP3     4110     TIP3     OH2      OT      -0.834000       15.9994           0
     34639 TIP3     4110     TIP3     H1       HT       0.417000       1.00800           0
     34640 TIP3     4110     TIP3     H2       HT       0.417000       1.00800           0
     34641 TIP3     4111     TIP3     OH2      OT      -0.834000       15.9994           0
     34642 TIP3     4111     TIP3     H1       HT       0.417000       1.00800           0
     34643 TIP3     4111     TIP3     H2       HT       0.417000       1.00800           0
     34644 TIP3     4112     TIP3     OH2      OT      -0.834000       15.9994           0
     34645 TIP3     4112     TIP3     H1       HT       0.417000       1.00800           0
     34646 TIP3     4112     TIP3     H2       HT       0.417000       1.00800           0
     34647 TIP3     4113     TIP3     OH2      OT      -0.834000       15.9994           0
     34648 TIP3     4113     TIP3     H1       HT       0.417000       1.00800           0
     34649 TIP3     4113     TIP3     H2       HT       0.417000       1.00800           0
     34650 TIP3     4114     TIP3     OH2      OT      -0.834000       15.9994           0
     34651 TIP3     4114     TIP3     H1       HT       0.417000       1.00800           0
     34652 TIP3     4114     TIP3     H2       HT       0.417000       1.00800           0
     34653 TIP3     4115     TIP3     OH2      OT      -0.834000       15.9994           0
     34654 TIP3     4115     TIP3     H1       HT       0.417000       1.00800           0
     34655 TIP3     4115     TIP3     H2       HT       0.417000       1.00800           0
     34656 TIP3     4116     TIP3     OH2      OT      -0.834000       15.9994           0
     34657 TIP3     4116     TIP3     H1       HT       0.417000       1.00800           0
     34658 TIP3     4116     TIP3     H2       HT       0.417000       1.00800           0
     34659 TIP3     4117     TIP3     OH2      OT      -0.834000       15.9994           0
     34660 TIP3     4117     TIP3     H1       HT       0.417000       1.00800           0
     34661 TIP3     4117     TIP3     H2       HT       0.417000       1.00800           0
     34662 TIP3     4118     TIP3     OH2      OT      -0.834000       15.9994           0
     34663 TIP3     4118     TIP3     H1       HT       0.417000       1.00800           0
     34664 TIP3     4118     TIP3     H2       HT       0.417000       1.00800           0
     34665 TIP3     4119     TIP3     OH2      OT      -0.834000       15.9994           0
     34666 TIP3     4119     TIP3     H1       HT       0.417000       1.00800           0
     34667 TIP3     4119     TIP3     H2       HT       0.417000       1.00800           0
     34668 TIP3     4120     TIP3     OH2      OT      -0.834000       15.9994           0
     34669 TIP3     4120     TIP3     H1       HT       0.417000       1.00800           0
     34670 TIP3     4120     TIP3     H2       HT       0.417000       1.00800           0
     34671 TIP3     4121     TIP3     OH2      OT      -0.834000       15.9994           0
     34672 TIP3     4121     TIP3     H1       HT       0.417000       1.00800           0
     34673 TIP3     4121     TIP3     H2       HT       0.417000       1.00800           0
     34674 TIP3     4122     TIP3     OH2      OT      -0.834000       15.9994           0
     34675 TIP3     4122     TIP3     H1       HT       0.417000       1.00800           0
     34676 TIP3     4122     TIP3     H2       HT       0.417000       1.00800           0
     34677 TIP3     4123     TIP3     OH2      OT      -0.834000       15.9994           0
     34678 TIP3     4123     TIP3     H1       HT       0.417000       1.00800           0
     34679 TIP3     4123     TIP3     H2       HT       0.417000       1.00800           0
     34680 TIP3     4124     TIP3     OH2      OT      -0.834000       15.9994           0
     34681 TIP3     4124     TIP3     H1       HT       0.417000       1.00800           0
     34682 TIP3     4124     TIP3     H2       HT       0.417000       1.00800           0
     34683 TIP3     4125     TIP3     OH2      OT      -0.834000       15.9994           0
     34684 TIP3     4125     TIP3     H1       HT       0.417000       1.00800           0
     34685 TIP3     4125     TIP3     H2       HT       0.417000       1.00800           0
     34686 TIP3     4126     TIP3     OH2      OT      -0.834000       15.9994           0
     34687 TIP3     4126     TIP3     H1       HT       0.417000       1.00800           0
     34688 TIP3     4126     TIP3     H2       HT       0.417000       1.00800           0
     34689 TIP3     4127     TIP3     OH2      OT      -0.834000       15.9994           0
     34690 TIP3     4127     TIP3     H1       HT       0.417000       1.00800           0
     34691 TIP3     4127     TIP3     H2       HT       0.417000       1.00800           0
     34692 TIP3     4128     TIP3     OH2      OT      -0.834000       15.9994           0
     34693 TIP3     4128     TIP3     H1       HT       0.417000       1.00800           0
     34694 TIP3     4128     TIP3     H2       HT       0.417000       1.00800           0
     34695 TIP3     4129     TIP3     OH2      OT      -0.834000       15.9994           0
     34696 TIP3     4129     TIP3     H1       HT       0.417000       1.00800           0
     34697 TIP3     4129     TIP3     H2       HT       0.417000       1.00800           0
     34698 TIP3     4130     TIP3     OH2      OT      -0.834000       15.9994           0
     34699 TIP3     4130     TIP3     H1       HT       0.417000       1.00800           0
     34700 TIP3     4130     TIP3     H2       HT       0.417000       1.00800           0
     34701 TIP3     4131     TIP3     OH2      OT      -0.834000       15.9994           0
     34702 TIP3     4131     TIP3     H1       HT       0.417000       1.00800           0
     34703 TIP3     4131     TIP3     H2       HT       0.417000       1.00800           0
     34704 TIP3     4132     TIP3     OH2      OT      -0.834000       15.9994           0
     34705 TIP3     4132     TIP3     H1       HT       0.417000       1.00800           0
     34706 TIP3     4132     TIP3     H2       HT       0.417000       1.00800           0
     34707 TIP3     4133     TIP3     OH2      OT      -0.834000       15.9994           0
     34708 TIP3     4133     TIP3     H1       HT       0.417000       1.00800           0
     34709 TIP3     4133     TIP3     H2       HT       0.417000       1.00800           0
     34710 TIP3     4134     TIP3     OH2      OT      -0.834000       15.9994           0
     34711 TIP3     4134     TIP3     H1       HT       0.417000       1.00800           0
     34712 TIP3     4134     TIP3     H2       HT       0.417000       1.00800           0
     34713 TIP3     4135     TIP3     OH2      OT      -0.834000       15.9994           0
     34714 TIP3     4135     TIP3     H1       HT       0.417000       1.00800           0
     34715 TIP3     4135     TIP3     H2       HT       0.417000       1.00800           0
     34716 TIP3     4136     TIP3     OH2      OT      -0.834000       15.9994           0
     34717 TIP3     4136     TIP3     H1       HT       0.417000       1.00800           0
     34718 TIP3     4136     TIP3     H2       HT       0.417000       1.00800           0
     34719 TIP3     4137     TIP3     OH2      OT      -0.834000       15.9994           0
     34720 TIP3     4137     TIP3     H1       HT       0.417000       1.00800           0
     34721 TIP3     4137     TIP3     H2       HT       0.417000       1.00800           0
     34722 TIP3     4138     TIP3     OH2      OT      -0.834000       15.9994           0
     34723 TIP3     4138     TIP3     H1       HT       0.417000       1.00800           0
     34724 TIP3     4138     TIP3     H2       HT       0.417000       1.00800           0
     34725 TIP3     4139     TIP3     OH2      OT      -0.834000       15.9994           0
     34726 TIP3     4139     TIP3     H1       HT       0.417000       1.00800           0
     34727 TIP3     4139     TIP3     H2       HT       0.417000       1.00800           0
     34728 TIP3     4140     TIP3     OH2      OT      -0.834000       15.9994           0
     34729 TIP3     4140     TIP3     H1       HT       0.417000       1.00800           0
     34730 TIP3     4140     TIP3     H2       HT       0.417000       1.00800           0
     34731 TIP3     4141     TIP3     OH2      OT      -0.834000       15.9994           0
     34732 TIP3     4141     TIP3     H1       HT       0.417000       1.00800           0
     34733 TIP3     4141     TIP3     H2       HT       0.417000       1.00800           0
     34734 TIP3     4142     TIP3     OH2      OT      -0.834000       15.9994           0
     34735 TIP3     4142     TIP3     H1       HT       0.417000       1.00800           0
     34736 TIP3     4142     TIP3     H2       HT       0.417000       1.00800           0
     34737 TIP3     4143     TIP3     OH2      OT      -0.834000       15.9994           0
     34738 TIP3     4143     TIP3     H1       HT       0.417000       1.00800           0
     34739 TIP3     4143     TIP3     H2       HT       0.417000       1.00800           0
     34740 TIP3     4144     TIP3     OH2      OT      -0.834000       15.9994           0
     34741 TIP3     4144     TIP3     H1       HT       0.417000       1.00800           0
     34742 TIP3     4144     TIP3     H2       HT       0.417000       1.00800           0
     34743 TIP3     4145     TIP3     OH2      OT      -0.834000       15.9994           0
     34744 TIP3     4145     TIP3     H1       HT       0.417000       1.00800           0
     34745 TIP3     4145     TIP3     H2       HT       0.417000       1.00800           0
     34746 TIP3     4146     TIP3     OH2      OT      -0.834000       15.9994           0
     34747 TIP3     4146     TIP3     H1       HT       0.417000       1.00800           0
     34748 TIP3     4146     TIP3     H2       HT       0.417000       1.00800           0
     34749 TIP3     4147     TIP3     OH2      OT      -0.834000       15.9994           0
     34750 TIP3     4147     TIP3     H1       HT       0.417000       1.00800           0
     34751 TIP3     4147     TIP3     H2       HT       0.417000       1.00800           0
     34752 TIP3     4148     TIP3     OH2      OT      -0.834000       15.9994           0
     34753 TIP3     4148     TIP3     H1       HT       0.417000       1.00800           0
     34754 TIP3     4148     TIP3     H2       HT       0.417000       1.00800           0
     34755 TIP3     4149     TIP3     OH2      OT      -0.834000       15.9994           0
     34756 TIP3     4149     TIP3     H1       HT       0.417000       1.00800           0
     34757 TIP3     4149     TIP3     H2       HT       0.417000       1.00800           0
     34758 TIP3     4150     TIP3     OH2      OT      -0.834000       15.9994           0
     34759 TIP3     4150     TIP3     H1       HT       0.417000       1.00800           0
     34760 TIP3     4150     TIP3     H2       HT       0.417000       1.00800           0
     34761 TIP3     4151     TIP3     OH2      OT      -0.834000       15.9994           0
     34762 TIP3     4151     TIP3     H1       HT       0.417000       1.00800           0
     34763 TIP3     4151     TIP3     H2       HT       0.417000       1.00800           0
     34764 TIP3     4152     TIP3     OH2      OT      -0.834000       15.9994           0
     34765 TIP3     4152     TIP3     H1       HT       0.417000       1.00800           0
     34766 TIP3     4152     TIP3     H2       HT       0.417000       1.00800           0
     34767 TIP3     4153     TIP3     OH2      OT      -0.834000       15.9994           0
     34768 TIP3     4153     TIP3     H1       HT       0.417000       1.00800           0
     34769 TIP3     4153     TIP3     H2       HT       0.417000       1.00800           0
     34770 TIP3     4154     TIP3     OH2      OT      -0.834000       15.9994           0
     34771 TIP3     4154     TIP3     H1       HT       0.417000       1.00800           0
     34772 TIP3     4154     TIP3     H2       HT       0.417000       1.00800           0
     34773 TIP3     4155     TIP3     OH2      OT      -0.834000       15.9994           0
     34774 TIP3     4155     TIP3     H1       HT       0.417000       1.00800           0
     34775 TIP3     4155     TIP3     H2       HT       0.417000       1.00800           0
     34776 TIP3     4156     TIP3     OH2      OT      -0.834000       15.9994           0
     34777 TIP3     4156     TIP3     H1       HT       0.417000       1.00800           0
     34778 TIP3     4156     TIP3     H2       HT       0.417000       1.00800           0
     34779 TIP3     4157     TIP3     OH2      OT      -0.834000       15.9994           0
     34780 TIP3     4157     TIP3     H1       HT       0.417000       1.00800           0
     34781 TIP3     4157     TIP3     H2       HT       0.417000       1.00800           0
     34782 TIP3     4158     TIP3     OH2      OT      -0.834000       15.9994           0
     34783 TIP3     4158     TIP3     H1       HT       0.417000       1.00800           0
     34784 TIP3     4158     TIP3     H2       HT       0.417000       1.00800           0
     34785 TIP3     4159     TIP3     OH2      OT      -0.834000       15.9994           0
     34786 TIP3     4159     TIP3     H1       HT       0.417000       1.00800           0
     34787 TIP3     4159     TIP3     H2       HT       0.417000       1.00800           0
     34788 TIP3     4160     TIP3     OH2      OT      -0.834000       15.9994           0
     34789 TIP3     4160     TIP3     H1       HT       0.417000       1.00800           0
     34790 TIP3     4160     TIP3     H2       HT       0.417000       1.00800           0
     34791 TIP3     4161     TIP3     OH2      OT      -0.834000       15.9994           0
     34792 TIP3     4161     TIP3     H1       HT       0.417000       1.00800           0
     34793 TIP3     4161     TIP3     H2       HT       0.417000       1.00800           0
     34794 TIP3     4162     TIP3     OH2      OT      -0.834000       15.9994           0
     34795 TIP3     4162     TIP3     H1       HT       0.417000       1.00800           0
     34796 TIP3     4162     TIP3     H2       HT       0.417000       1.00800           0
     34797 TIP3     4163     TIP3     OH2      OT      -0.834000       15.9994           0
     34798 TIP3     4163     TIP3     H1       HT       0.417000       1.00800           0
     34799 TIP3     4163     TIP3     H2       HT       0.417000       1.00800           0
     34800 TIP3     4164     TIP3     OH2      OT      -0.834000       15.9994           0
     34801 TIP3     4164     TIP3     H1       HT       0.417000       1.00800           0
     34802 TIP3     4164     TIP3     H2       HT       0.417000       1.00800           0
     34803 TIP3     4165     TIP3     OH2      OT      -0.834000       15.9994           0
     34804 TIP3     4165     TIP3     H1       HT       0.417000       1.00800           0
     34805 TIP3     4165     TIP3     H2       HT       0.417000       1.00800           0
     34806 TIP3     4166     TIP3     OH2      OT      -0.834000       15.9994           0
     34807 TIP3     4166     TIP3     H1       HT       0.417000       1.00800           0
     34808 TIP3     4166     TIP3     H2       HT       0.417000       1.00800           0
     34809 TIP3     4167     TIP3     OH2      OT      -0.834000       15.9994           0
     34810 TIP3     4167     TIP3     H1       HT       0.417000       1.00800           0
     34811 TIP3     4167     TIP3     H2       HT       0.417000       1.00800           0
     34812 TIP3     4168     TIP3     OH2      OT      -0.834000       15.9994           0
     34813 TIP3     4168     TIP3     H1       HT       0.417000       1.00800           0
     34814 TIP3     4168     TIP3     H2       HT       0.417000       1.00800           0
     34815 TIP3     4169     TIP3     OH2      OT      -0.834000       15.9994           0
     34816 TIP3     4169     TIP3     H1       HT       0.417000       1.00800           0
     34817 TIP3     4169     TIP3     H2       HT       0.417000       1.00800           0
     34818 TIP3     4170     TIP3     OH2      OT      -0.834000       15.9994           0
     34819 TIP3     4170     TIP3     H1       HT       0.417000       1.00800           0
     34820 TIP3     4170     TIP3     H2       HT       0.417000       1.00800           0
     34821 TIP3     4171     TIP3     OH2      OT      -0.834000       15.9994           0
     34822 TIP3     4171     TIP3     H1       HT       0.417000       1.00800           0
     34823 TIP3     4171     TIP3     H2       HT       0.417000       1.00800           0
     34824 TIP3     4172     TIP3     OH2      OT      -0.834000       15.9994           0
     34825 TIP3     4172     TIP3     H1       HT       0.417000       1.00800           0
     34826 TIP3     4172     TIP3     H2       HT       0.417000       1.00800           0
     34827 TIP3     4173     TIP3     OH2      OT      -0.834000       15.9994           0
     34828 TIP3     4173     TIP3     H1       HT       0.417000       1.00800           0
     34829 TIP3     4173     TIP3     H2       HT       0.417000       1.00800           0
     34830 TIP3     4174     TIP3     OH2      OT      -0.834000       15.9994           0
     34831 TIP3     4174     TIP3     H1       HT       0.417000       1.00800           0
     34832 TIP3     4174     TIP3     H2       HT       0.417000       1.00800           0
     34833 TIP3     4175     TIP3     OH2      OT      -0.834000       15.9994           0
     34834 TIP3     4175     TIP3     H1       HT       0.417000       1.00800           0
     34835 TIP3     4175     TIP3     H2       HT       0.417000       1.00800           0
     34836 TIP3     4176     TIP3     OH2      OT      -0.834000       15.9994           0
     34837 TIP3     4176     TIP3     H1       HT       0.417000       1.00800           0
     34838 TIP3     4176     TIP3     H2       HT       0.417000       1.00800           0
     34839 TIP3     4177     TIP3     OH2      OT      -0.834000       15.9994           0
     34840 TIP3     4177     TIP3     H1       HT       0.417000       1.00800           0
     34841 TIP3     4177     TIP3     H2       HT       0.417000       1.00800           0
     34842 TIP3     4178     TIP3     OH2      OT      -0.834000       15.9994           0
     34843 TIP3     4178     TIP3     H1       HT       0.417000       1.00800           0
     34844 TIP3     4178     TIP3     H2       HT       0.417000       1.00800           0
     34845 TIP3     4179     TIP3     OH2      OT      -0.834000       15.9994           0
     34846 TIP3     4179     TIP3     H1       HT       0.417000       1.00800           0
     34847 TIP3     4179     TIP3     H2       HT       0.417000       1.00800           0
     34848 TIP3     4180     TIP3     OH2      OT      -0.834000       15.9994           0
     34849 TIP3     4180     TIP3     H1       HT       0.417000       1.00800           0
     34850 TIP3     4180     TIP3     H2       HT       0.417000       1.00800           0
     34851 TIP3     4181     TIP3     OH2      OT      -0.834000       15.9994           0
     34852 TIP3     4181     TIP3     H1       HT       0.417000       1.00800           0
     34853 TIP3     4181     TIP3     H2       HT       0.417000       1.00800           0
     34854 TIP3     4182     TIP3     OH2      OT      -0.834000       15.9994           0
     34855 TIP3     4182     TIP3     H1       HT       0.417000       1.00800           0
     34856 TIP3     4182     TIP3     H2       HT       0.417000       1.00800           0
     34857 TIP3     4183     TIP3     OH2      OT      -0.834000       15.9994           0
     34858 TIP3     4183     TIP3     H1       HT       0.417000       1.00800           0
     34859 TIP3     4183     TIP3     H2       HT       0.417000       1.00800           0
     34860 TIP3     4184     TIP3     OH2      OT      -0.834000       15.9994           0
     34861 TIP3     4184     TIP3     H1       HT       0.417000       1.00800           0
     34862 TIP3     4184     TIP3     H2       HT       0.417000       1.00800           0
     34863 TIP3     4185     TIP3     OH2      OT      -0.834000       15.9994           0
     34864 TIP3     4185     TIP3     H1       HT       0.417000       1.00800           0
     34865 TIP3     4185     TIP3     H2       HT       0.417000       1.00800           0
     34866 TIP3     4186     TIP3     OH2      OT      -0.834000       15.9994           0
     34867 TIP3     4186     TIP3     H1       HT       0.417000       1.00800           0
     34868 TIP3     4186     TIP3     H2       HT       0.417000       1.00800           0
     34869 TIP3     4187     TIP3     OH2      OT      -0.834000       15.9994           0
     34870 TIP3     4187     TIP3     H1       HT       0.417000       1.00800           0
     34871 TIP3     4187     TIP3     H2       HT       0.417000       1.00800           0
     34872 TIP3     4188     TIP3     OH2      OT      -0.834000       15.9994           0
     34873 TIP3     4188     TIP3     H1       HT       0.417000       1.00800           0
     34874 TIP3     4188     TIP3     H2       HT       0.417000       1.00800           0
     34875 TIP3     4189     TIP3     OH2      OT      -0.834000       15.9994           0
     34876 TIP3     4189     TIP3     H1       HT       0.417000       1.00800           0
     34877 TIP3     4189     TIP3     H2       HT       0.417000       1.00800           0
     34878 TIP3     4190     TIP3     OH2      OT      -0.834000       15.9994           0
     34879 TIP3     4190     TIP3     H1       HT       0.417000       1.00800           0
     34880 TIP3     4190     TIP3     H2       HT       0.417000       1.00800           0
     34881 TIP3     4191     TIP3     OH2      OT      -0.834000       15.9994           0
     34882 TIP3     4191     TIP3     H1       HT       0.417000       1.00800           0
     34883 TIP3     4191     TIP3     H2       HT       0.417000       1.00800           0
     34884 TIP3     4192     TIP3     OH2      OT      -0.834000       15.9994           0
     34885 TIP3     4192     TIP3     H1       HT       0.417000       1.00800           0
     34886 TIP3     4192     TIP3     H2       HT       0.417000       1.00800           0
     34887 TIP3     4193     TIP3     OH2      OT      -0.834000       15.9994           0
     34888 TIP3     4193     TIP3     H1       HT       0.417000       1.00800           0
     34889 TIP3     4193     TIP3     H2       HT       0.417000       1.00800           0
     34890 TIP3     4194     TIP3     OH2      OT      -0.834000       15.9994           0
     34891 TIP3     4194     TIP3     H1       HT       0.417000       1.00800           0
     34892 TIP3     4194     TIP3     H2       HT       0.417000       1.00800           0
     34893 TIP3     4195     TIP3     OH2      OT      -0.834000       15.9994           0
     34894 TIP3     4195     TIP3     H1       HT       0.417000       1.00800           0
     34895 TIP3     4195     TIP3     H2       HT       0.417000       1.00800           0
     34896 TIP3     4196     TIP3     OH2      OT      -0.834000       15.9994           0
     34897 TIP3     4196     TIP3     H1       HT       0.417000       1.00800           0
     34898 TIP3     4196     TIP3     H2       HT       0.417000       1.00800           0
     34899 TIP3     4197     TIP3     OH2      OT      -0.834000       15.9994           0
     34900 TIP3     4197     TIP3     H1       HT       0.417000       1.00800           0
     34901 TIP3     4197     TIP3     H2       HT       0.417000       1.00800           0
     34902 TIP3     4198     TIP3     OH2      OT      -0.834000       15.9994           0
     34903 TIP3     4198     TIP3     H1       HT       0.417000       1.00800           0
     34904 TIP3     4198     TIP3     H2       HT       0.417000       1.00800           0
     34905 TIP3     4199     TIP3     OH2      OT      -0.834000       15.9994           0
     34906 TIP3     4199     TIP3     H1       HT       0.417000       1.00800           0
     34907 TIP3     4199     TIP3     H2       HT       0.417000       1.00800           0
     34908 TIP3     4200     TIP3     OH2      OT      -0.834000       15.9994           0
     34909 TIP3     4200     TIP3     H1       HT       0.417000       1.00800           0
     34910 TIP3     4200     TIP3     H2       HT       0.417000       1.00800           0
     34911 TIP3     4201     TIP3     OH2      OT      -0.834000       15.9994           0
     34912 TIP3     4201     TIP3     H1       HT       0.417000       1.00800           0
     34913 TIP3     4201     TIP3     H2       HT       0.417000       1.00800           0
     34914 TIP3     4202     TIP3     OH2      OT      -0.834000       15.9994           0
     34915 TIP3     4202     TIP3     H1       HT       0.417000       1.00800           0
     34916 TIP3     4202     TIP3     H2       HT       0.417000       1.00800           0
     34917 TIP3     4203     TIP3     OH2      OT      -0.834000       15.9994           0
     34918 TIP3     4203     TIP3     H1       HT       0.417000       1.00800           0
     34919 TIP3     4203     TIP3     H2       HT       0.417000       1.00800           0
     34920 TIP3     4204     TIP3     OH2      OT      -0.834000       15.9994           0
     34921 TIP3     4204     TIP3     H1       HT       0.417000       1.00800           0
     34922 TIP3     4204     TIP3     H2       HT       0.417000       1.00800           0
     34923 TIP3     4205     TIP3     OH2      OT      -0.834000       15.9994           0
     34924 TIP3     4205     TIP3     H1       HT       0.417000       1.00800           0
     34925 TIP3     4205     TIP3     H2       HT       0.417000       1.00800           0
     34926 TIP3     4206     TIP3     OH2      OT      -0.834000       15.9994           0
     34927 TIP3     4206     TIP3     H1       HT       0.417000       1.00800           0
     34928 TIP3     4206     TIP3     H2       HT       0.417000       1.00800           0
     34929 TIP3     4207     TIP3     OH2      OT      -0.834000       15.9994           0
     34930 TIP3     4207     TIP3     H1       HT       0.417000       1.00800           0
     34931 TIP3     4207     TIP3     H2       HT       0.417000       1.00800           0
     34932 TIP3     4208     TIP3     OH2      OT      -0.834000       15.9994           0
     34933 TIP3     4208     TIP3     H1       HT       0.417000       1.00800           0
     34934 TIP3     4208     TIP3     H2       HT       0.417000       1.00800           0
     34935 TIP3     4209     TIP3     OH2      OT      -0.834000       15.9994           0
     34936 TIP3     4209     TIP3     H1       HT       0.417000       1.00800           0
     34937 TIP3     4209     TIP3     H2       HT       0.417000       1.00800           0
     34938 TIP3     4210     TIP3     OH2      OT      -0.834000       15.9994           0
     34939 TIP3     4210     TIP3     H1       HT       0.417000       1.00800           0
     34940 TIP3     4210     TIP3     H2       HT       0.417000       1.00800           0
     34941 TIP3     4211     TIP3     OH2      OT      -0.834000       15.9994           0
     34942 TIP3     4211     TIP3     H1       HT       0.417000       1.00800           0
     34943 TIP3     4211     TIP3     H2       HT       0.417000       1.00800           0
     34944 TIP3     4212     TIP3     OH2      OT      -0.834000       15.9994           0
     34945 TIP3     4212     TIP3     H1       HT       0.417000       1.00800           0
     34946 TIP3     4212     TIP3     H2       HT       0.417000       1.00800           0
     34947 TIP3     4213     TIP3     OH2      OT      -0.834000       15.9994           0
     34948 TIP3     4213     TIP3     H1       HT       0.417000       1.00800           0
     34949 TIP3     4213     TIP3     H2       HT       0.417000       1.00800           0
     34950 TIP3     4214     TIP3     OH2      OT      -0.834000       15.9994           0
     34951 TIP3     4214     TIP3     H1       HT       0.417000       1.00800           0
     34952 TIP3     4214     TIP3     H2       HT       0.417000       1.00800           0
     34953 TIP3     4215     TIP3     OH2      OT      -0.834000       15.9994           0
     34954 TIP3     4215     TIP3     H1       HT       0.417000       1.00800           0
     34955 TIP3     4215     TIP3     H2       HT       0.417000       1.00800           0
     34956 TIP3     4216     TIP3     OH2      OT      -0.834000       15.9994           0
     34957 TIP3     4216     TIP3     H1       HT       0.417000       1.00800           0
     34958 TIP3     4216     TIP3     H2       HT       0.417000       1.00800           0
     34959 TIP3     4217     TIP3     OH2      OT      -0.834000       15.9994           0
     34960 TIP3     4217     TIP3     H1       HT       0.417000       1.00800           0
     34961 TIP3     4217     TIP3     H2       HT       0.417000       1.00800           0
     34962 TIP3     4218     TIP3     OH2      OT      -0.834000       15.9994           0
     34963 TIP3     4218     TIP3     H1       HT       0.417000       1.00800           0
     34964 TIP3     4218     TIP3     H2       HT       0.417000       1.00800           0
     34965 TIP3     4219     TIP3     OH2      OT      -0.834000       15.9994           0
     34966 TIP3     4219     TIP3     H1       HT       0.417000       1.00800           0
     34967 TIP3     4219     TIP3     H2       HT       0.417000       1.00800           0
     34968 TIP3     4220     TIP3     OH2      OT      -0.834000       15.9994           0
     34969 TIP3     4220     TIP3     H1       HT       0.417000       1.00800           0
     34970 TIP3     4220     TIP3     H2       HT       0.417000       1.00800           0
     34971 TIP3     4221     TIP3     OH2      OT      -0.834000       15.9994           0
     34972 TIP3     4221     TIP3     H1       HT       0.417000       1.00800           0
     34973 TIP3     4221     TIP3     H2       HT       0.417000       1.00800           0
     34974 TIP3     4222     TIP3     OH2      OT      -0.834000       15.9994           0
     34975 TIP3     4222     TIP3     H1       HT       0.417000       1.00800           0
     34976 TIP3     4222     TIP3     H2       HT       0.417000       1.00800           0
     34977 TIP3     4223     TIP3     OH2      OT      -0.834000       15.9994           0
     34978 TIP3     4223     TIP3     H1       HT       0.417000       1.00800           0
     34979 TIP3     4223     TIP3     H2       HT       0.417000       1.00800           0
     34980 TIP3     4224     TIP3     OH2      OT      -0.834000       15.9994           0
     34981 TIP3     4224     TIP3     H1       HT       0.417000       1.00800           0
     34982 TIP3     4224     TIP3     H2       HT       0.417000       1.00800           0
     34983 TIP3     4225     TIP3     OH2      OT      -0.834000       15.9994           0
     34984 TIP3     4225     TIP3     H1       HT       0.417000       1.00800           0
     34985 TIP3     4225     TIP3     H2       HT       0.417000       1.00800           0
     34986 TIP3     4226     TIP3     OH2      OT      -0.834000       15.9994           0
     34987 TIP3     4226     TIP3     H1       HT       0.417000       1.00800           0
     34988 TIP3     4226     TIP3     H2       HT       0.417000       1.00800           0
     34989 TIP3     4227     TIP3     OH2      OT      -0.834000       15.9994           0
     34990 TIP3     4227     TIP3     H1       HT       0.417000       1.00800           0
     34991 TIP3     4227     TIP3     H2       HT       0.417000       1.00800           0
     34992 TIP3     4228     TIP3     OH2      OT      -0.834000       15.9994           0
     34993 TIP3     4228     TIP3     H1       HT       0.417000       1.00800           0
     34994 TIP3     4228     TIP3     H2       HT       0.417000       1.00800           0
     34995 TIP3     4229     TIP3     OH2      OT      -0.834000       15.9994           0
     34996 TIP3     4229     TIP3     H1       HT       0.417000       1.00800           0
     34997 TIP3     4229     TIP3     H2       HT       0.417000       1.00800           0
     34998 TIP3     4230     TIP3     OH2      OT      -0.834000       15.9994           0
     34999 TIP3     4230     TIP3     H1       HT       0.417000       1.00800           0
     35000 TIP3     4230     TIP3     H2       HT       0.417000       1.00800           0
     35001 TIP3     4231     TIP3     OH2      OT      -0.834000       15.9994           0
     35002 TIP3     4231     TIP3     H1       HT       0.417000       1.00800           0
     35003 TIP3     4231     TIP3     H2       HT       0.417000       1.00800           0
     35004 TIP3     4232     TIP3     OH2      OT      -0.834000       15.9994           0
     35005 TIP3     4232     TIP3     H1       HT       0.417000       1.00800           0
     35006 TIP3     4232     TIP3     H2       HT       0.417000       1.00800           0
     35007 TIP3     4233     TIP3     OH2      OT      -0.834000       15.9994           0
     35008 TIP3     4233     TIP3     H1       HT       0.417000       1.00800           0
     35009 TIP3     4233     TIP3     H2       HT       0.417000       1.00800           0
     35010 TIP3     4234     TIP3     OH2      OT      -0.834000       15.9994           0
     35011 TIP3     4234     TIP3     H1       HT       0.417000       1.00800           0
     35012 TIP3     4234     TIP3     H2       HT       0.417000       1.00800           0
     35013 TIP3     4235     TIP3     OH2      OT      -0.834000       15.9994           0
     35014 TIP3     4235     TIP3     H1       HT       0.417000       1.00800           0
     35015 TIP3     4235     TIP3     H2       HT       0.417000       1.00800           0
     35016 TIP3     4236     TIP3     OH2      OT      -0.834000       15.9994           0
     35017 TIP3     4236     TIP3     H1       HT       0.417000       1.00800           0
     35018 TIP3     4236     TIP3     H2       HT       0.417000       1.00800           0
     35019 TIP3     4237     TIP3     OH2      OT      -0.834000       15.9994           0
     35020 TIP3     4237     TIP3     H1       HT       0.417000       1.00800           0
     35021 TIP3     4237     TIP3     H2       HT       0.417000       1.00800           0
     35022 TIP3     4238     TIP3     OH2      OT      -0.834000       15.9994           0
     35023 TIP3     4238     TIP3     H1       HT       0.417000       1.00800           0
     35024 TIP3     4238     TIP3     H2       HT       0.417000       1.00800           0
     35025 TIP3     4239     TIP3     OH2      OT      -0.834000       15.9994           0
     35026 TIP3     4239     TIP3     H1       HT       0.417000       1.00800           0
     35027 TIP3     4239     TIP3     H2       HT       0.417000       1.00800           0
     35028 TIP3     4240     TIP3     OH2      OT      -0.834000       15.9994           0
     35029 TIP3     4240     TIP3     H1       HT       0.417000       1.00800           0
     35030 TIP3     4240     TIP3     H2       HT       0.417000       1.00800           0
     35031 TIP3     4241     TIP3     OH2      OT      -0.834000       15.9994           0
     35032 TIP3     4241     TIP3     H1       HT       0.417000       1.00800           0
     35033 TIP3     4241     TIP3     H2       HT       0.417000       1.00800           0
     35034 TIP3     4242     TIP3     OH2      OT      -0.834000       15.9994           0
     35035 TIP3     4242     TIP3     H1       HT       0.417000       1.00800           0
     35036 TIP3     4242     TIP3     H2       HT       0.417000       1.00800           0
     35037 TIP3     4243     TIP3     OH2      OT      -0.834000       15.9994           0
     35038 TIP3     4243     TIP3     H1       HT       0.417000       1.00800           0
     35039 TIP3     4243     TIP3     H2       HT       0.417000       1.00800           0
     35040 TIP3     4244     TIP3     OH2      OT      -0.834000       15.9994           0
     35041 TIP3     4244     TIP3     H1       HT       0.417000       1.00800           0
     35042 TIP3     4244     TIP3     H2       HT       0.417000       1.00800           0
     35043 TIP3     4245     TIP3     OH2      OT      -0.834000       15.9994           0
     35044 TIP3     4245     TIP3     H1       HT       0.417000       1.00800           0
     35045 TIP3     4245     TIP3     H2       HT       0.417000       1.00800           0
     35046 TIP3     4246     TIP3     OH2      OT      -0.834000       15.9994           0
     35047 TIP3     4246     TIP3     H1       HT       0.417000       1.00800           0
     35048 TIP3     4246     TIP3     H2       HT       0.417000       1.00800           0
     35049 TIP3     4247     TIP3     OH2      OT      -0.834000       15.9994           0
     35050 TIP3     4247     TIP3     H1       HT       0.417000       1.00800           0
     35051 TIP3     4247     TIP3     H2       HT       0.417000       1.00800           0
     35052 TIP3     4248     TIP3     OH2      OT      -0.834000       15.9994           0
     35053 TIP3     4248     TIP3     H1       HT       0.417000       1.00800           0
     35054 TIP3     4248     TIP3     H2       HT       0.417000       1.00800           0
     35055 TIP3     4249     TIP3     OH2      OT      -0.834000       15.9994           0
     35056 TIP3     4249     TIP3     H1       HT       0.417000       1.00800           0
     35057 TIP3     4249     TIP3     H2       HT       0.417000       1.00800           0
     35058 TIP3     4250     TIP3     OH2      OT      -0.834000       15.9994           0
     35059 TIP3     4250     TIP3     H1       HT       0.417000       1.00800           0
     35060 TIP3     4250     TIP3     H2       HT       0.417000       1.00800           0
     35061 TIP3     4251     TIP3     OH2      OT      -0.834000       15.9994           0
     35062 TIP3     4251     TIP3     H1       HT       0.417000       1.00800           0
     35063 TIP3     4251     TIP3     H2       HT       0.417000       1.00800           0
     35064 TIP3     4252     TIP3     OH2      OT      -0.834000       15.9994           0
     35065 TIP3     4252     TIP3     H1       HT       0.417000       1.00800           0
     35066 TIP3     4252     TIP3     H2       HT       0.417000       1.00800           0
     35067 TIP3     4253     TIP3     OH2      OT      -0.834000       15.9994           0
     35068 TIP3     4253     TIP3     H1       HT       0.417000       1.00800           0
     35069 TIP3     4253     TIP3     H2       HT       0.417000       1.00800           0
     35070 TIP3     4254     TIP3     OH2      OT      -0.834000       15.9994           0
     35071 TIP3     4254     TIP3     H1       HT       0.417000       1.00800           0
     35072 TIP3     4254     TIP3     H2       HT       0.417000       1.00800           0
     35073 TIP3     4255     TIP3     OH2      OT      -0.834000       15.9994           0
     35074 TIP3     4255     TIP3     H1       HT       0.417000       1.00800           0
     35075 TIP3     4255     TIP3     H2       HT       0.417000       1.00800           0
     35076 TIP3     4256     TIP3     OH2      OT      -0.834000       15.9994           0
     35077 TIP3     4256     TIP3     H1       HT       0.417000       1.00800           0
     35078 TIP3     4256     TIP3     H2       HT       0.417000       1.00800           0
     35079 TIP3     4257     TIP3     OH2      OT      -0.834000       15.9994           0
     35080 TIP3     4257     TIP3     H1       HT       0.417000       1.00800           0
     35081 TIP3     4257     TIP3     H2       HT       0.417000       1.00800           0
     35082 TIP3     4258     TIP3     OH2      OT      -0.834000       15.9994           0
     35083 TIP3     4258     TIP3     H1       HT       0.417000       1.00800           0
     35084 TIP3     4258     TIP3     H2       HT       0.417000       1.00800           0
     35085 TIP3     4259     TIP3     OH2      OT      -0.834000       15.9994           0
     35086 TIP3     4259     TIP3     H1       HT       0.417000       1.00800           0
     35087 TIP3     4259     TIP3     H2       HT       0.417000       1.00800           0
     35088 TIP3     4260     TIP3     OH2      OT      -0.834000       15.9994           0
     35089 TIP3     4260     TIP3     H1       HT       0.417000       1.00800           0
     35090 TIP3     4260     TIP3     H2       HT       0.417000       1.00800           0
     35091 TIP3     4261     TIP3     OH2      OT      -0.834000       15.9994           0
     35092 TIP3     4261     TIP3     H1       HT       0.417000       1.00800           0
     35093 TIP3     4261     TIP3     H2       HT       0.417000       1.00800           0
     35094 TIP3     4262     TIP3     OH2      OT      -0.834000       15.9994           0
     35095 TIP3     4262     TIP3     H1       HT       0.417000       1.00800           0
     35096 TIP3     4262     TIP3     H2       HT       0.417000       1.00800           0
     35097 TIP3     4263     TIP3     OH2      OT      -0.834000       15.9994           0
     35098 TIP3     4263     TIP3     H1       HT       0.417000       1.00800           0
     35099 TIP3     4263     TIP3     H2       HT       0.417000       1.00800           0
     35100 TIP3     4264     TIP3     OH2      OT      -0.834000       15.9994           0
     35101 TIP3     4264     TIP3     H1       HT       0.417000       1.00800           0
     35102 TIP3     4264     TIP3     H2       HT       0.417000       1.00800           0
     35103 TIP3     4265     TIP3     OH2      OT      -0.834000       15.9994           0
     35104 TIP3     4265     TIP3     H1       HT       0.417000       1.00800           0
     35105 TIP3     4265     TIP3     H2       HT       0.417000       1.00800           0
     35106 TIP3     4266     TIP3     OH2      OT      -0.834000       15.9994           0
     35107 TIP3     4266     TIP3     H1       HT       0.417000       1.00800           0
     35108 TIP3     4266     TIP3     H2       HT       0.417000       1.00800           0
     35109 TIP3     4267     TIP3     OH2      OT      -0.834000       15.9994           0
     35110 TIP3     4267     TIP3     H1       HT       0.417000       1.00800           0
     35111 TIP3     4267     TIP3     H2       HT       0.417000       1.00800           0
     35112 TIP3     4268     TIP3     OH2      OT      -0.834000       15.9994           0
     35113 TIP3     4268     TIP3     H1       HT       0.417000       1.00800           0
     35114 TIP3     4268     TIP3     H2       HT       0.417000       1.00800           0
     35115 TIP3     4269     TIP3     OH2      OT      -0.834000       15.9994           0
     35116 TIP3     4269     TIP3     H1       HT       0.417000       1.00800           0
     35117 TIP3     4269     TIP3     H2       HT       0.417000       1.00800           0
     35118 TIP3     4270     TIP3     OH2      OT      -0.834000       15.9994           0
     35119 TIP3     4270     TIP3     H1       HT       0.417000       1.00800           0
     35120 TIP3     4270     TIP3     H2       HT       0.417000       1.00800           0
     35121 TIP3     4271     TIP3     OH2      OT      -0.834000       15.9994           0
     35122 TIP3     4271     TIP3     H1       HT       0.417000       1.00800           0
     35123 TIP3     4271     TIP3     H2       HT       0.417000       1.00800           0
     35124 TIP3     4272     TIP3     OH2      OT      -0.834000       15.9994           0
     35125 TIP3     4272     TIP3     H1       HT       0.417000       1.00800           0
     35126 TIP3     4272     TIP3     H2       HT       0.417000       1.00800           0
     35127 TIP3     4273     TIP3     OH2      OT      -0.834000       15.9994           0
     35128 TIP3     4273     TIP3     H1       HT       0.417000       1.00800           0
     35129 TIP3     4273     TIP3     H2       HT       0.417000       1.00800           0
     35130 TIP3     4274     TIP3     OH2      OT      -0.834000       15.9994           0
     35131 TIP3     4274     TIP3     H1       HT       0.417000       1.00800           0
     35132 TIP3     4274     TIP3     H2       HT       0.417000       1.00800           0
     35133 TIP3     4275     TIP3     OH2      OT      -0.834000       15.9994           0
     35134 TIP3     4275     TIP3     H1       HT       0.417000       1.00800           0
     35135 TIP3     4275     TIP3     H2       HT       0.417000       1.00800           0
     35136 TIP3     4276     TIP3     OH2      OT      -0.834000       15.9994           0
     35137 TIP3     4276     TIP3     H1       HT       0.417000       1.00800           0
     35138 TIP3     4276     TIP3     H2       HT       0.417000       1.00800           0
     35139 TIP3     4277     TIP3     OH2      OT      -0.834000       15.9994           0
     35140 TIP3     4277     TIP3     H1       HT       0.417000       1.00800           0
     35141 TIP3     4277     TIP3     H2       HT       0.417000       1.00800           0
     35142 TIP3     4278     TIP3     OH2      OT      -0.834000       15.9994           0
     35143 TIP3     4278     TIP3     H1       HT       0.417000       1.00800           0
     35144 TIP3     4278     TIP3     H2       HT       0.417000       1.00800           0
     35145 TIP3     4279     TIP3     OH2      OT      -0.834000       15.9994           0
     35146 TIP3     4279     TIP3     H1       HT       0.417000       1.00800           0
     35147 TIP3     4279     TIP3     H2       HT       0.417000       1.00800           0
     35148 TIP3     4280     TIP3     OH2      OT      -0.834000       15.9994           0
     35149 TIP3     4280     TIP3     H1       HT       0.417000       1.00800           0
     35150 TIP3     4280     TIP3     H2       HT       0.417000       1.00800           0
     35151 TIP3     4281     TIP3     OH2      OT      -0.834000       15.9994           0
     35152 TIP3     4281     TIP3     H1       HT       0.417000       1.00800           0
     35153 TIP3     4281     TIP3     H2       HT       0.417000       1.00800           0
     35154 TIP3     4282     TIP3     OH2      OT      -0.834000       15.9994           0
     35155 TIP3     4282     TIP3     H1       HT       0.417000       1.00800           0
     35156 TIP3     4282     TIP3     H2       HT       0.417000       1.00800           0
     35157 TIP3     4283     TIP3     OH2      OT      -0.834000       15.9994           0
     35158 TIP3     4283     TIP3     H1       HT       0.417000       1.00800           0
     35159 TIP3     4283     TIP3     H2       HT       0.417000       1.00800           0
     35160 TIP3     4284     TIP3     OH2      OT      -0.834000       15.9994           0
     35161 TIP3     4284     TIP3     H1       HT       0.417000       1.00800           0
     35162 TIP3     4284     TIP3     H2       HT       0.417000       1.00800           0
     35163 TIP3     4285     TIP3     OH2      OT      -0.834000       15.9994           0
     35164 TIP3     4285     TIP3     H1       HT       0.417000       1.00800           0
     35165 TIP3     4285     TIP3     H2       HT       0.417000       1.00800           0
     35166 TIP3     4286     TIP3     OH2      OT      -0.834000       15.9994           0
     35167 TIP3     4286     TIP3     H1       HT       0.417000       1.00800           0
     35168 TIP3     4286     TIP3     H2       HT       0.417000       1.00800           0
     35169 TIP3     4287     TIP3     OH2      OT      -0.834000       15.9994           0
     35170 TIP3     4287     TIP3     H1       HT       0.417000       1.00800           0
     35171 TIP3     4287     TIP3     H2       HT       0.417000       1.00800           0
     35172 TIP3     4288     TIP3     OH2      OT      -0.834000       15.9994           0
     35173 TIP3     4288     TIP3     H1       HT       0.417000       1.00800           0
     35174 TIP3     4288     TIP3     H2       HT       0.417000       1.00800           0
     35175 TIP3     4289     TIP3     OH2      OT      -0.834000       15.9994           0
     35176 TIP3     4289     TIP3     H1       HT       0.417000       1.00800           0
     35177 TIP3     4289     TIP3     H2       HT       0.417000       1.00800           0
     35178 TIP3     4290     TIP3     OH2      OT      -0.834000       15.9994           0
     35179 TIP3     4290     TIP3     H1       HT       0.417000       1.00800           0
     35180 TIP3     4290     TIP3     H2       HT       0.417000       1.00800           0
     35181 TIP3     4291     TIP3     OH2      OT      -0.834000       15.9994           0
     35182 TIP3     4291     TIP3     H1       HT       0.417000       1.00800           0
     35183 TIP3     4291     TIP3     H2       HT       0.417000       1.00800           0
     35184 TIP3     4292     TIP3     OH2      OT      -0.834000       15.9994           0
     35185 TIP3     4292     TIP3     H1       HT       0.417000       1.00800           0
     35186 TIP3     4292     TIP3     H2       HT       0.417000       1.00800           0
     35187 TIP3     4293     TIP3     OH2      OT      -0.834000       15.9994           0
     35188 TIP3     4293     TIP3     H1       HT       0.417000       1.00800           0
     35189 TIP3     4293     TIP3     H2       HT       0.417000       1.00800           0
     35190 TIP3     4294     TIP3     OH2      OT      -0.834000       15.9994           0
     35191 TIP3     4294     TIP3     H1       HT       0.417000       1.00800           0
     35192 TIP3     4294     TIP3     H2       HT       0.417000       1.00800           0
     35193 TIP3     4295     TIP3     OH2      OT      -0.834000       15.9994           0
     35194 TIP3     4295     TIP3     H1       HT       0.417000       1.00800           0
     35195 TIP3     4295     TIP3     H2       HT       0.417000       1.00800           0
     35196 TIP3     4296     TIP3     OH2      OT      -0.834000       15.9994           0
     35197 TIP3     4296     TIP3     H1       HT       0.417000       1.00800           0
     35198 TIP3     4296     TIP3     H2       HT       0.417000       1.00800           0
     35199 TIP3     4297     TIP3     OH2      OT      -0.834000       15.9994           0
     35200 TIP3     4297     TIP3     H1       HT       0.417000       1.00800           0
     35201 TIP3     4297     TIP3     H2       HT       0.417000       1.00800           0
     35202 TIP3     4298     TIP3     OH2      OT      -0.834000       15.9994           0
     35203 TIP3     4298     TIP3     H1       HT       0.417000       1.00800           0
     35204 TIP3     4298     TIP3     H2       HT       0.417000       1.00800           0
     35205 TIP3     4299     TIP3     OH2      OT      -0.834000       15.9994           0
     35206 TIP3     4299     TIP3     H1       HT       0.417000       1.00800           0
     35207 TIP3     4299     TIP3     H2       HT       0.417000       1.00800           0
     35208 TIP3     4300     TIP3     OH2      OT      -0.834000       15.9994           0
     35209 TIP3     4300     TIP3     H1       HT       0.417000       1.00800           0
     35210 TIP3     4300     TIP3     H2       HT       0.417000       1.00800           0
     35211 TIP3     4301     TIP3     OH2      OT      -0.834000       15.9994           0
     35212 TIP3     4301     TIP3     H1       HT       0.417000       1.00800           0
     35213 TIP3     4301     TIP3     H2       HT       0.417000       1.00800           0
     35214 TIP3     4302     TIP3     OH2      OT      -0.834000       15.9994           0
     35215 TIP3     4302     TIP3     H1       HT       0.417000       1.00800           0
     35216 TIP3     4302     TIP3     H2       HT       0.417000       1.00800           0
     35217 TIP3     4303     TIP3     OH2      OT      -0.834000       15.9994           0
     35218 TIP3     4303     TIP3     H1       HT       0.417000       1.00800           0
     35219 TIP3     4303     TIP3     H2       HT       0.417000       1.00800           0
     35220 TIP3     4304     TIP3     OH2      OT      -0.834000       15.9994           0
     35221 TIP3     4304     TIP3     H1       HT       0.417000       1.00800           0
     35222 TIP3     4304     TIP3     H2       HT       0.417000       1.00800           0
     35223 TIP3     4305     TIP3     OH2      OT      -0.834000       15.9994           0
     35224 TIP3     4305     TIP3     H1       HT       0.417000       1.00800           0
     35225 TIP3     4305     TIP3     H2       HT       0.417000       1.00800           0
     35226 TIP3     4306     TIP3     OH2      OT      -0.834000       15.9994           0
     35227 TIP3     4306     TIP3     H1       HT       0.417000       1.00800           0
     35228 TIP3     4306     TIP3     H2       HT       0.417000       1.00800           0
     35229 TIP3     4307     TIP3     OH2      OT      -0.834000       15.9994           0
     35230 TIP3     4307     TIP3     H1       HT       0.417000       1.00800           0
     35231 TIP3     4307     TIP3     H2       HT       0.417000       1.00800           0
     35232 TIP3     4308     TIP3     OH2      OT      -0.834000       15.9994           0
     35233 TIP3     4308     TIP3     H1       HT       0.417000       1.00800           0
     35234 TIP3     4308     TIP3     H2       HT       0.417000       1.00800           0
     35235 TIP3     4309     TIP3     OH2      OT      -0.834000       15.9994           0
     35236 TIP3     4309     TIP3     H1       HT       0.417000       1.00800           0
     35237 TIP3     4309     TIP3     H2       HT       0.417000       1.00800           0
     35238 TIP3     4310     TIP3     OH2      OT      -0.834000       15.9994           0
     35239 TIP3     4310     TIP3     H1       HT       0.417000       1.00800           0
     35240 TIP3     4310     TIP3     H2       HT       0.417000       1.00800           0
     35241 TIP3     4311     TIP3     OH2      OT      -0.834000       15.9994           0
     35242 TIP3     4311     TIP3     H1       HT       0.417000       1.00800           0
     35243 TIP3     4311     TIP3     H2       HT       0.417000       1.00800           0
     35244 TIP3     4312     TIP3     OH2      OT      -0.834000       15.9994           0
     35245 TIP3     4312     TIP3     H1       HT       0.417000       1.00800           0
     35246 TIP3     4312     TIP3     H2       HT       0.417000       1.00800           0
     35247 TIP3     4313     TIP3     OH2      OT      -0.834000       15.9994           0
     35248 TIP3     4313     TIP3     H1       HT       0.417000       1.00800           0
     35249 TIP3     4313     TIP3     H2       HT       0.417000       1.00800           0
     35250 TIP3     4314     TIP3     OH2      OT      -0.834000       15.9994           0
     35251 TIP3     4314     TIP3     H1       HT       0.417000       1.00800           0
     35252 TIP3     4314     TIP3     H2       HT       0.417000       1.00800           0
     35253 TIP3     4315     TIP3     OH2      OT      -0.834000       15.9994           0
     35254 TIP3     4315     TIP3     H1       HT       0.417000       1.00800           0
     35255 TIP3     4315     TIP3     H2       HT       0.417000       1.00800           0
     35256 TIP3     4316     TIP3     OH2      OT      -0.834000       15.9994           0
     35257 TIP3     4316     TIP3     H1       HT       0.417000       1.00800           0
     35258 TIP3     4316     TIP3     H2       HT       0.417000       1.00800           0
     35259 TIP3     4317     TIP3     OH2      OT      -0.834000       15.9994           0
     35260 TIP3     4317     TIP3     H1       HT       0.417000       1.00800           0
     35261 TIP3     4317     TIP3     H2       HT       0.417000       1.00800           0
     35262 TIP3     4318     TIP3     OH2      OT      -0.834000       15.9994           0
     35263 TIP3     4318     TIP3     H1       HT       0.417000       1.00800           0
     35264 TIP3     4318     TIP3     H2       HT       0.417000       1.00800           0
     35265 TIP3     4319     TIP3     OH2      OT      -0.834000       15.9994           0
     35266 TIP3     4319     TIP3     H1       HT       0.417000       1.00800           0
     35267 TIP3     4319     TIP3     H2       HT       0.417000       1.00800           0
     35268 TIP3     4320     TIP3     OH2      OT      -0.834000       15.9994           0
     35269 TIP3     4320     TIP3     H1       HT       0.417000       1.00800           0
     35270 TIP3     4320     TIP3     H2       HT       0.417000       1.00800           0
     35271 TIP3     4321     TIP3     OH2      OT      -0.834000       15.9994           0
     35272 TIP3     4321     TIP3     H1       HT       0.417000       1.00800           0
     35273 TIP3     4321     TIP3     H2       HT       0.417000       1.00800           0
     35274 TIP3     4322     TIP3     OH2      OT      -0.834000       15.9994           0
     35275 TIP3     4322     TIP3     H1       HT       0.417000       1.00800           0
     35276 TIP3     4322     TIP3     H2       HT       0.417000       1.00800           0
     35277 TIP3     4323     TIP3     OH2      OT      -0.834000       15.9994           0
     35278 TIP3     4323     TIP3     H1       HT       0.417000       1.00800           0
     35279 TIP3     4323     TIP3     H2       HT       0.417000       1.00800           0
     35280 TIP3     4324     TIP3     OH2      OT      -0.834000       15.9994           0
     35281 TIP3     4324     TIP3     H1       HT       0.417000       1.00800           0
     35282 TIP3     4324     TIP3     H2       HT       0.417000       1.00800           0
     35283 TIP3     4325     TIP3     OH2      OT      -0.834000       15.9994           0
     35284 TIP3     4325     TIP3     H1       HT       0.417000       1.00800           0
     35285 TIP3     4325     TIP3     H2       HT       0.417000       1.00800           0
     35286 TIP3     4326     TIP3     OH2      OT      -0.834000       15.9994           0
     35287 TIP3     4326     TIP3     H1       HT       0.417000       1.00800           0
     35288 TIP3     4326     TIP3     H2       HT       0.417000       1.00800           0
     35289 TIP3     4327     TIP3     OH2      OT      -0.834000       15.9994           0
     35290 TIP3     4327     TIP3     H1       HT       0.417000       1.00800           0
     35291 TIP3     4327     TIP3     H2       HT       0.417000       1.00800           0
     35292 TIP3     4328     TIP3     OH2      OT      -0.834000       15.9994           0
     35293 TIP3     4328     TIP3     H1       HT       0.417000       1.00800           0
     35294 TIP3     4328     TIP3     H2       HT       0.417000       1.00800           0
     35295 TIP3     4329     TIP3     OH2      OT      -0.834000       15.9994           0
     35296 TIP3     4329     TIP3     H1       HT       0.417000       1.00800           0
     35297 TIP3     4329     TIP3     H2       HT       0.417000       1.00800           0
     35298 TIP3     4330     TIP3     OH2      OT      -0.834000       15.9994           0
     35299 TIP3     4330     TIP3     H1       HT       0.417000       1.00800           0
     35300 TIP3     4330     TIP3     H2       HT       0.417000       1.00800           0
     35301 TIP3     4331     TIP3     OH2      OT      -0.834000       15.9994           0
     35302 TIP3     4331     TIP3     H1       HT       0.417000       1.00800           0
     35303 TIP3     4331     TIP3     H2       HT       0.417000       1.00800           0
     35304 TIP3     4332     TIP3     OH2      OT      -0.834000       15.9994           0
     35305 TIP3     4332     TIP3     H1       HT       0.417000       1.00800           0
     35306 TIP3     4332     TIP3     H2       HT       0.417000       1.00800           0
     35307 TIP3     4333     TIP3     OH2      OT      -0.834000       15.9994           0
     35308 TIP3     4333     TIP3     H1       HT       0.417000       1.00800           0
     35309 TIP3     4333     TIP3     H2       HT       0.417000       1.00800           0
     35310 TIP3     4334     TIP3     OH2      OT      -0.834000       15.9994           0
     35311 TIP3     4334     TIP3     H1       HT       0.417000       1.00800           0
     35312 TIP3     4334     TIP3     H2       HT       0.417000       1.00800           0
     35313 TIP3     4335     TIP3     OH2      OT      -0.834000       15.9994           0
     35314 TIP3     4335     TIP3     H1       HT       0.417000       1.00800           0
     35315 TIP3     4335     TIP3     H2       HT       0.417000       1.00800           0
     35316 TIP3     4336     TIP3     OH2      OT      -0.834000       15.9994           0
     35317 TIP3     4336     TIP3     H1       HT       0.417000       1.00800           0
     35318 TIP3     4336     TIP3     H2       HT       0.417000       1.00800           0
     35319 TIP3     4337     TIP3     OH2      OT      -0.834000       15.9994           0
     35320 TIP3     4337     TIP3     H1       HT       0.417000       1.00800           0
     35321 TIP3     4337     TIP3     H2       HT       0.417000       1.00800           0
     35322 TIP3     4338     TIP3     OH2      OT      -0.834000       15.9994           0
     35323 TIP3     4338     TIP3     H1       HT       0.417000       1.00800           0
     35324 TIP3     4338     TIP3     H2       HT       0.417000       1.00800           0
     35325 TIP3     4339     TIP3     OH2      OT      -0.834000       15.9994           0
     35326 TIP3     4339     TIP3     H1       HT       0.417000       1.00800           0
     35327 TIP3     4339     TIP3     H2       HT       0.417000       1.00800           0
     35328 TIP3     4340     TIP3     OH2      OT      -0.834000       15.9994           0
     35329 TIP3     4340     TIP3     H1       HT       0.417000       1.00800           0
     35330 TIP3     4340     TIP3     H2       HT       0.417000       1.00800           0
     35331 TIP3     4341     TIP3     OH2      OT      -0.834000       15.9994           0
     35332 TIP3     4341     TIP3     H1       HT       0.417000       1.00800           0
     35333 TIP3     4341     TIP3     H2       HT       0.417000       1.00800           0
     35334 TIP3     4342     TIP3     OH2      OT      -0.834000       15.9994           0
     35335 TIP3     4342     TIP3     H1       HT       0.417000       1.00800           0
     35336 TIP3     4342     TIP3     H2       HT       0.417000       1.00800           0
     35337 TIP3     4343     TIP3     OH2      OT      -0.834000       15.9994           0
     35338 TIP3     4343     TIP3     H1       HT       0.417000       1.00800           0
     35339 TIP3     4343     TIP3     H2       HT       0.417000       1.00800           0
     35340 TIP3     4344     TIP3     OH2      OT      -0.834000       15.9994           0
     35341 TIP3     4344     TIP3     H1       HT       0.417000       1.00800           0
     35342 TIP3     4344     TIP3     H2       HT       0.417000       1.00800           0
     35343 TIP3     4345     TIP3     OH2      OT      -0.834000       15.9994           0
     35344 TIP3     4345     TIP3     H1       HT       0.417000       1.00800           0
     35345 TIP3     4345     TIP3     H2       HT       0.417000       1.00800           0
     35346 TIP3     4346     TIP3     OH2      OT      -0.834000       15.9994           0
     35347 TIP3     4346     TIP3     H1       HT       0.417000       1.00800           0
     35348 TIP3     4346     TIP3     H2       HT       0.417000       1.00800           0
     35349 TIP3     4347     TIP3     OH2      OT      -0.834000       15.9994           0
     35350 TIP3     4347     TIP3     H1       HT       0.417000       1.00800           0
     35351 TIP3     4347     TIP3     H2       HT       0.417000       1.00800           0
     35352 TIP3     4348     TIP3     OH2      OT      -0.834000       15.9994           0
     35353 TIP3     4348     TIP3     H1       HT       0.417000       1.00800           0
     35354 TIP3     4348     TIP3     H2       HT       0.417000       1.00800           0
     35355 TIP3     4349     TIP3     OH2      OT      -0.834000       15.9994           0
     35356 TIP3     4349     TIP3     H1       HT       0.417000       1.00800           0
     35357 TIP3     4349     TIP3     H2       HT       0.417000       1.00800           0
     35358 TIP3     4350     TIP3     OH2      OT      -0.834000       15.9994           0
     35359 TIP3     4350     TIP3     H1       HT       0.417000       1.00800           0
     35360 TIP3     4350     TIP3     H2       HT       0.417000       1.00800           0
     35361 TIP3     4351     TIP3     OH2      OT      -0.834000       15.9994           0
     35362 TIP3     4351     TIP3     H1       HT       0.417000       1.00800           0
     35363 TIP3     4351     TIP3     H2       HT       0.417000       1.00800           0
     35364 TIP3     4352     TIP3     OH2      OT      -0.834000       15.9994           0
     35365 TIP3     4352     TIP3     H1       HT       0.417000       1.00800           0
     35366 TIP3     4352     TIP3     H2       HT       0.417000       1.00800           0
     35367 TIP3     4353     TIP3     OH2      OT      -0.834000       15.9994           0
     35368 TIP3     4353     TIP3     H1       HT       0.417000       1.00800           0
     35369 TIP3     4353     TIP3     H2       HT       0.417000       1.00800           0
     35370 TIP3     4354     TIP3     OH2      OT      -0.834000       15.9994           0
     35371 TIP3     4354     TIP3     H1       HT       0.417000       1.00800           0
     35372 TIP3     4354     TIP3     H2       HT       0.417000       1.00800           0
     35373 TIP3     4355     TIP3     OH2      OT      -0.834000       15.9994           0
     35374 TIP3     4355     TIP3     H1       HT       0.417000       1.00800           0
     35375 TIP3     4355     TIP3     H2       HT       0.417000       1.00800           0
     35376 TIP3     4356     TIP3     OH2      OT      -0.834000       15.9994           0
     35377 TIP3     4356     TIP3     H1       HT       0.417000       1.00800           0
     35378 TIP3     4356     TIP3     H2       HT       0.417000       1.00800           0
     35379 TIP3     4357     TIP3     OH2      OT      -0.834000       15.9994           0
     35380 TIP3     4357     TIP3     H1       HT       0.417000       1.00800           0
     35381 TIP3     4357     TIP3     H2       HT       0.417000       1.00800           0
     35382 TIP3     4358     TIP3     OH2      OT      -0.834000       15.9994           0
     35383 TIP3     4358     TIP3     H1       HT       0.417000       1.00800           0
     35384 TIP3     4358     TIP3     H2       HT       0.417000       1.00800           0
     35385 TIP3     4359     TIP3     OH2      OT      -0.834000       15.9994           0
     35386 TIP3     4359     TIP3     H1       HT       0.417000       1.00800           0
     35387 TIP3     4359     TIP3     H2       HT       0.417000       1.00800           0
     35388 TIP3     4360     TIP3     OH2      OT      -0.834000       15.9994           0
     35389 TIP3     4360     TIP3     H1       HT       0.417000       1.00800           0
     35390 TIP3     4360     TIP3     H2       HT       0.417000       1.00800           0
     35391 TIP3     4361     TIP3     OH2      OT      -0.834000       15.9994           0
     35392 TIP3     4361     TIP3     H1       HT       0.417000       1.00800           0
     35393 TIP3     4361     TIP3     H2       HT       0.417000       1.00800           0
     35394 TIP3     4362     TIP3     OH2      OT      -0.834000       15.9994           0
     35395 TIP3     4362     TIP3     H1       HT       0.417000       1.00800           0
     35396 TIP3     4362     TIP3     H2       HT       0.417000       1.00800           0
     35397 TIP3     4363     TIP3     OH2      OT      -0.834000       15.9994           0
     35398 TIP3     4363     TIP3     H1       HT       0.417000       1.00800           0
     35399 TIP3     4363     TIP3     H2       HT       0.417000       1.00800           0
     35400 TIP3     4364     TIP3     OH2      OT      -0.834000       15.9994           0
     35401 TIP3     4364     TIP3     H1       HT       0.417000       1.00800           0
     35402 TIP3     4364     TIP3     H2       HT       0.417000       1.00800           0
     35403 TIP3     4365     TIP3     OH2      OT      -0.834000       15.9994           0
     35404 TIP3     4365     TIP3     H1       HT       0.417000       1.00800           0
     35405 TIP3     4365     TIP3     H2       HT       0.417000       1.00800           0
     35406 TIP3     4366     TIP3     OH2      OT      -0.834000       15.9994           0
     35407 TIP3     4366     TIP3     H1       HT       0.417000       1.00800           0
     35408 TIP3     4366     TIP3     H2       HT       0.417000       1.00800           0
     35409 TIP3     4367     TIP3     OH2      OT      -0.834000       15.9994           0
     35410 TIP3     4367     TIP3     H1       HT       0.417000       1.00800           0
     35411 TIP3     4367     TIP3     H2       HT       0.417000       1.00800           0
     35412 TIP3     4368     TIP3     OH2      OT      -0.834000       15.9994           0
     35413 TIP3     4368     TIP3     H1       HT       0.417000       1.00800           0
     35414 TIP3     4368     TIP3     H2       HT       0.417000       1.00800           0
     35415 TIP3     4369     TIP3     OH2      OT      -0.834000       15.9994           0
     35416 TIP3     4369     TIP3     H1       HT       0.417000       1.00800           0
     35417 TIP3     4369     TIP3     H2       HT       0.417000       1.00800           0
     35418 TIP3     4370     TIP3     OH2      OT      -0.834000       15.9994           0
     35419 TIP3     4370     TIP3     H1       HT       0.417000       1.00800           0
     35420 TIP3     4370     TIP3     H2       HT       0.417000       1.00800           0
     35421 TIP3     4371     TIP3     OH2      OT      -0.834000       15.9994           0
     35422 TIP3     4371     TIP3     H1       HT       0.417000       1.00800           0
     35423 TIP3     4371     TIP3     H2       HT       0.417000       1.00800           0
     35424 TIP3     4372     TIP3     OH2      OT      -0.834000       15.9994           0
     35425 TIP3     4372     TIP3     H1       HT       0.417000       1.00800           0
     35426 TIP3     4372     TIP3     H2       HT       0.417000       1.00800           0
     35427 TIP3     4373     TIP3     OH2      OT      -0.834000       15.9994           0
     35428 TIP3     4373     TIP3     H1       HT       0.417000       1.00800           0
     35429 TIP3     4373     TIP3     H2       HT       0.417000       1.00800           0
     35430 TIP3     4374     TIP3     OH2      OT      -0.834000       15.9994           0
     35431 TIP3     4374     TIP3     H1       HT       0.417000       1.00800           0
     35432 TIP3     4374     TIP3     H2       HT       0.417000       1.00800           0
     35433 TIP3     4375     TIP3     OH2      OT      -0.834000       15.9994           0
     35434 TIP3     4375     TIP3     H1       HT       0.417000       1.00800           0
     35435 TIP3     4375     TIP3     H2       HT       0.417000       1.00800           0
     35436 TIP3     4376     TIP3     OH2      OT      -0.834000       15.9994           0
     35437 TIP3     4376     TIP3     H1       HT       0.417000       1.00800           0
     35438 TIP3     4376     TIP3     H2       HT       0.417000       1.00800           0
     35439 TIP3     4377     TIP3     OH2      OT      -0.834000       15.9994           0
     35440 TIP3     4377     TIP3     H1       HT       0.417000       1.00800           0
     35441 TIP3     4377     TIP3     H2       HT       0.417000       1.00800           0
     35442 TIP3     4378     TIP3     OH2      OT      -0.834000       15.9994           0
     35443 TIP3     4378     TIP3     H1       HT       0.417000       1.00800           0
     35444 TIP3     4378     TIP3     H2       HT       0.417000       1.00800           0
     35445 TIP3     4379     TIP3     OH2      OT      -0.834000       15.9994           0
     35446 TIP3     4379     TIP3     H1       HT       0.417000       1.00800           0
     35447 TIP3     4379     TIP3     H2       HT       0.417000       1.00800           0
     35448 TIP3     4380     TIP3     OH2      OT      -0.834000       15.9994           0
     35449 TIP3     4380     TIP3     H1       HT       0.417000       1.00800           0
     35450 TIP3     4380     TIP3     H2       HT       0.417000       1.00800           0
     35451 TIP3     4381     TIP3     OH2      OT      -0.834000       15.9994           0
     35452 TIP3     4381     TIP3     H1       HT       0.417000       1.00800           0
     35453 TIP3     4381     TIP3     H2       HT       0.417000       1.00800           0
     35454 TIP3     4382     TIP3     OH2      OT      -0.834000       15.9994           0
     35455 TIP3     4382     TIP3     H1       HT       0.417000       1.00800           0
     35456 TIP3     4382     TIP3     H2       HT       0.417000       1.00800           0
     35457 TIP3     4383     TIP3     OH2      OT      -0.834000       15.9994           0
     35458 TIP3     4383     TIP3     H1       HT       0.417000       1.00800           0
     35459 TIP3     4383     TIP3     H2       HT       0.417000       1.00800           0
     35460 TIP3     4384     TIP3     OH2      OT      -0.834000       15.9994           0
     35461 TIP3     4384     TIP3     H1       HT       0.417000       1.00800           0
     35462 TIP3     4384     TIP3     H2       HT       0.417000       1.00800           0
     35463 TIP3     4385     TIP3     OH2      OT      -0.834000       15.9994           0
     35464 TIP3     4385     TIP3     H1       HT       0.417000       1.00800           0
     35465 TIP3     4385     TIP3     H2       HT       0.417000       1.00800           0
     35466 TIP3     4386     TIP3     OH2      OT      -0.834000       15.9994           0
     35467 TIP3     4386     TIP3     H1       HT       0.417000       1.00800           0
     35468 TIP3     4386     TIP3     H2       HT       0.417000       1.00800           0
     35469 TIP3     4387     TIP3     OH2      OT      -0.834000       15.9994           0
     35470 TIP3     4387     TIP3     H1       HT       0.417000       1.00800           0
     35471 TIP3     4387     TIP3     H2       HT       0.417000       1.00800           0
     35472 TIP3     4388     TIP3     OH2      OT      -0.834000       15.9994           0
     35473 TIP3     4388     TIP3     H1       HT       0.417000       1.00800           0
     35474 TIP3     4388     TIP3     H2       HT       0.417000       1.00800           0
     35475 TIP3     4389     TIP3     OH2      OT      -0.834000       15.9994           0
     35476 TIP3     4389     TIP3     H1       HT       0.417000       1.00800           0
     35477 TIP3     4389     TIP3     H2       HT       0.417000       1.00800           0
     35478 TIP3     4390     TIP3     OH2      OT      -0.834000       15.9994           0
     35479 TIP3     4390     TIP3     H1       HT       0.417000       1.00800           0
     35480 TIP3     4390     TIP3     H2       HT       0.417000       1.00800           0
     35481 TIP3     4391     TIP3     OH2      OT      -0.834000       15.9994           0
     35482 TIP3     4391     TIP3     H1       HT       0.417000       1.00800           0
     35483 TIP3     4391     TIP3     H2       HT       0.417000       1.00800           0
     35484 TIP3     4392     TIP3     OH2      OT      -0.834000       15.9994           0
     35485 TIP3     4392     TIP3     H1       HT       0.417000       1.00800           0
     35486 TIP3     4392     TIP3     H2       HT       0.417000       1.00800           0
     35487 TIP3     4393     TIP3     OH2      OT      -0.834000       15.9994           0
     35488 TIP3     4393     TIP3     H1       HT       0.417000       1.00800           0
     35489 TIP3     4393     TIP3     H2       HT       0.417000       1.00800           0
     35490 TIP3     4394     TIP3     OH2      OT      -0.834000       15.9994           0
     35491 TIP3     4394     TIP3     H1       HT       0.417000       1.00800           0
     35492 TIP3     4394     TIP3     H2       HT       0.417000       1.00800           0
     35493 TIP3     4395     TIP3     OH2      OT      -0.834000       15.9994           0
     35494 TIP3     4395     TIP3     H1       HT       0.417000       1.00800           0
     35495 TIP3     4395     TIP3     H2       HT       0.417000       1.00800           0
     35496 TIP3     4396     TIP3     OH2      OT      -0.834000       15.9994           0
     35497 TIP3     4396     TIP3     H1       HT       0.417000       1.00800           0
     35498 TIP3     4396     TIP3     H2       HT       0.417000       1.00800           0
     35499 TIP3     4397     TIP3     OH2      OT      -0.834000       15.9994           0
     35500 TIP3     4397     TIP3     H1       HT       0.417000       1.00800           0
     35501 TIP3     4397     TIP3     H2       HT       0.417000       1.00800           0
     35502 TIP3     4398     TIP3     OH2      OT      -0.834000       15.9994           0
     35503 TIP3     4398     TIP3     H1       HT       0.417000       1.00800           0
     35504 TIP3     4398     TIP3     H2       HT       0.417000       1.00800           0
     35505 TIP3     4399     TIP3     OH2      OT      -0.834000       15.9994           0
     35506 TIP3     4399     TIP3     H1       HT       0.417000       1.00800           0
     35507 TIP3     4399     TIP3     H2       HT       0.417000       1.00800           0
     35508 TIP3     4400     TIP3     OH2      OT      -0.834000       15.9994           0
     35509 TIP3     4400     TIP3     H1       HT       0.417000       1.00800           0
     35510 TIP3     4400     TIP3     H2       HT       0.417000       1.00800           0
     35511 TIP3     4401     TIP3     OH2      OT      -0.834000       15.9994           0
     35512 TIP3     4401     TIP3     H1       HT       0.417000       1.00800           0
     35513 TIP3     4401     TIP3     H2       HT       0.417000       1.00800           0
     35514 TIP3     4402     TIP3     OH2      OT      -0.834000       15.9994           0
     35515 TIP3     4402     TIP3     H1       HT       0.417000       1.00800           0
     35516 TIP3     4402     TIP3     H2       HT       0.417000       1.00800           0
     35517 TIP3     4403     TIP3     OH2      OT      -0.834000       15.9994           0
     35518 TIP3     4403     TIP3     H1       HT       0.417000       1.00800           0
     35519 TIP3     4403     TIP3     H2       HT       0.417000       1.00800           0
     35520 TIP3     4404     TIP3     OH2      OT      -0.834000       15.9994           0
     35521 TIP3     4404     TIP3     H1       HT       0.417000       1.00800           0
     35522 TIP3     4404     TIP3     H2       HT       0.417000       1.00800           0
     35523 TIP3     4405     TIP3     OH2      OT      -0.834000       15.9994           0
     35524 TIP3     4405     TIP3     H1       HT       0.417000       1.00800           0
     35525 TIP3     4405     TIP3     H2       HT       0.417000       1.00800           0
     35526 TIP3     4406     TIP3     OH2      OT      -0.834000       15.9994           0
     35527 TIP3     4406     TIP3     H1       HT       0.417000       1.00800           0
     35528 TIP3     4406     TIP3     H2       HT       0.417000       1.00800           0
     35529 TIP3     4407     TIP3     OH2      OT      -0.834000       15.9994           0
     35530 TIP3     4407     TIP3     H1       HT       0.417000       1.00800           0
     35531 TIP3     4407     TIP3     H2       HT       0.417000       1.00800           0
     35532 TIP3     4408     TIP3     OH2      OT      -0.834000       15.9994           0
     35533 TIP3     4408     TIP3     H1       HT       0.417000       1.00800           0
     35534 TIP3     4408     TIP3     H2       HT       0.417000       1.00800           0
     35535 TIP3     4409     TIP3     OH2      OT      -0.834000       15.9994           0
     35536 TIP3     4409     TIP3     H1       HT       0.417000       1.00800           0
     35537 TIP3     4409     TIP3     H2       HT       0.417000       1.00800           0
     35538 TIP3     4410     TIP3     OH2      OT      -0.834000       15.9994           0
     35539 TIP3     4410     TIP3     H1       HT       0.417000       1.00800           0
     35540 TIP3     4410     TIP3     H2       HT       0.417000       1.00800           0
     35541 TIP3     4411     TIP3     OH2      OT      -0.834000       15.9994           0
     35542 TIP3     4411     TIP3     H1       HT       0.417000       1.00800           0
     35543 TIP3     4411     TIP3     H2       HT       0.417000       1.00800           0
     35544 TIP3     4412     TIP3     OH2      OT      -0.834000       15.9994           0
     35545 TIP3     4412     TIP3     H1       HT       0.417000       1.00800           0
     35546 TIP3     4412     TIP3     H2       HT       0.417000       1.00800           0
     35547 TIP3     4413     TIP3     OH2      OT      -0.834000       15.9994           0
     35548 TIP3     4413     TIP3     H1       HT       0.417000       1.00800           0
     35549 TIP3     4413     TIP3     H2       HT       0.417000       1.00800           0
     35550 TIP3     4414     TIP3     OH2      OT      -0.834000       15.9994           0
     35551 TIP3     4414     TIP3     H1       HT       0.417000       1.00800           0
     35552 TIP3     4414     TIP3     H2       HT       0.417000       1.00800           0
     35553 TIP3     4415     TIP3     OH2      OT      -0.834000       15.9994           0
     35554 TIP3     4415     TIP3     H1       HT       0.417000       1.00800           0
     35555 TIP3     4415     TIP3     H2       HT       0.417000       1.00800           0
     35556 TIP3     4416     TIP3     OH2      OT      -0.834000       15.9994           0
     35557 TIP3     4416     TIP3     H1       HT       0.417000       1.00800           0
     35558 TIP3     4416     TIP3     H2       HT       0.417000       1.00800           0
     35559 TIP3     4417     TIP3     OH2      OT      -0.834000       15.9994           0
     35560 TIP3     4417     TIP3     H1       HT       0.417000       1.00800           0
     35561 TIP3     4417     TIP3     H2       HT       0.417000       1.00800           0
     35562 TIP3     4418     TIP3     OH2      OT      -0.834000       15.9994           0
     35563 TIP3     4418     TIP3     H1       HT       0.417000       1.00800           0
     35564 TIP3     4418     TIP3     H2       HT       0.417000       1.00800           0
     35565 TIP3     4419     TIP3     OH2      OT      -0.834000       15.9994           0
     35566 TIP3     4419     TIP3     H1       HT       0.417000       1.00800           0
     35567 TIP3     4419     TIP3     H2       HT       0.417000       1.00800           0
     35568 TIP3     4420     TIP3     OH2      OT      -0.834000       15.9994           0
     35569 TIP3     4420     TIP3     H1       HT       0.417000       1.00800           0
     35570 TIP3     4420     TIP3     H2       HT       0.417000       1.00800           0
     35571 TIP3     4421     TIP3     OH2      OT      -0.834000       15.9994           0
     35572 TIP3     4421     TIP3     H1       HT       0.417000       1.00800           0
     35573 TIP3     4421     TIP3     H2       HT       0.417000       1.00800           0
     35574 TIP3     4422     TIP3     OH2      OT      -0.834000       15.9994           0
     35575 TIP3     4422     TIP3     H1       HT       0.417000       1.00800           0
     35576 TIP3     4422     TIP3     H2       HT       0.417000       1.00800           0
     35577 TIP3     4423     TIP3     OH2      OT      -0.834000       15.9994           0
     35578 TIP3     4423     TIP3     H1       HT       0.417000       1.00800           0
     35579 TIP3     4423     TIP3     H2       HT       0.417000       1.00800           0
     35580 TIP3     4424     TIP3     OH2      OT      -0.834000       15.9994           0
     35581 TIP3     4424     TIP3     H1       HT       0.417000       1.00800           0
     35582 TIP3     4424     TIP3     H2       HT       0.417000       1.00800           0
     35583 TIP3     4425     TIP3     OH2      OT      -0.834000       15.9994           0
     35584 TIP3     4425     TIP3     H1       HT       0.417000       1.00800           0
     35585 TIP3     4425     TIP3     H2       HT       0.417000       1.00800           0
     35586 TIP3     4426     TIP3     OH2      OT      -0.834000       15.9994           0
     35587 TIP3     4426     TIP3     H1       HT       0.417000       1.00800           0
     35588 TIP3     4426     TIP3     H2       HT       0.417000       1.00800           0
     35589 TIP3     4427     TIP3     OH2      OT      -0.834000       15.9994           0
     35590 TIP3     4427     TIP3     H1       HT       0.417000       1.00800           0
     35591 TIP3     4427     TIP3     H2       HT       0.417000       1.00800           0
     35592 TIP3     4428     TIP3     OH2      OT      -0.834000       15.9994           0
     35593 TIP3     4428     TIP3     H1       HT       0.417000       1.00800           0
     35594 TIP3     4428     TIP3     H2       HT       0.417000       1.00800           0
     35595 TIP3     4429     TIP3     OH2      OT      -0.834000       15.9994           0
     35596 TIP3     4429     TIP3     H1       HT       0.417000       1.00800           0
     35597 TIP3     4429     TIP3     H2       HT       0.417000       1.00800           0
     35598 TIP3     4430     TIP3     OH2      OT      -0.834000       15.9994           0
     35599 TIP3     4430     TIP3     H1       HT       0.417000       1.00800           0
     35600 TIP3     4430     TIP3     H2       HT       0.417000       1.00800           0
     35601 TIP3     4431     TIP3     OH2      OT      -0.834000       15.9994           0
     35602 TIP3     4431     TIP3     H1       HT       0.417000       1.00800           0
     35603 TIP3     4431     TIP3     H2       HT       0.417000       1.00800           0
     35604 TIP3     4432     TIP3     OH2      OT      -0.834000       15.9994           0
     35605 TIP3     4432     TIP3     H1       HT       0.417000       1.00800           0
     35606 TIP3     4432     TIP3     H2       HT       0.417000       1.00800           0
     35607 TIP3     4433     TIP3     OH2      OT      -0.834000       15.9994           0
     35608 TIP3     4433     TIP3     H1       HT       0.417000       1.00800           0
     35609 TIP3     4433     TIP3     H2       HT       0.417000       1.00800           0
     35610 TIP3     4434     TIP3     OH2      OT      -0.834000       15.9994           0
     35611 TIP3     4434     TIP3     H1       HT       0.417000       1.00800           0
     35612 TIP3     4434     TIP3     H2       HT       0.417000       1.00800           0
     35613 TIP3     4435     TIP3     OH2      OT      -0.834000       15.9994           0
     35614 TIP3     4435     TIP3     H1       HT       0.417000       1.00800           0
     35615 TIP3     4435     TIP3     H2       HT       0.417000       1.00800           0
     35616 TIP3     4436     TIP3     OH2      OT      -0.834000       15.9994           0
     35617 TIP3     4436     TIP3     H1       HT       0.417000       1.00800           0
     35618 TIP3     4436     TIP3     H2       HT       0.417000       1.00800           0
     35619 TIP3     4437     TIP3     OH2      OT      -0.834000       15.9994           0
     35620 TIP3     4437     TIP3     H1       HT       0.417000       1.00800           0
     35621 TIP3     4437     TIP3     H2       HT       0.417000       1.00800           0
     35622 TIP3     4438     TIP3     OH2      OT      -0.834000       15.9994           0
     35623 TIP3     4438     TIP3     H1       HT       0.417000       1.00800           0
     35624 TIP3     4438     TIP3     H2       HT       0.417000       1.00800           0
     35625 TIP3     4439     TIP3     OH2      OT      -0.834000       15.9994           0
     35626 TIP3     4439     TIP3     H1       HT       0.417000       1.00800           0
     35627 TIP3     4439     TIP3     H2       HT       0.417000       1.00800           0
     35628 TIP3     4440     TIP3     OH2      OT      -0.834000       15.9994           0
     35629 TIP3     4440     TIP3     H1       HT       0.417000       1.00800           0
     35630 TIP3     4440     TIP3     H2       HT       0.417000       1.00800           0
     35631 TIP3     4441     TIP3     OH2      OT      -0.834000       15.9994           0
     35632 TIP3     4441     TIP3     H1       HT       0.417000       1.00800           0
     35633 TIP3     4441     TIP3     H2       HT       0.417000       1.00800           0
     35634 TIP3     4442     TIP3     OH2      OT      -0.834000       15.9994           0
     35635 TIP3     4442     TIP3     H1       HT       0.417000       1.00800           0
     35636 TIP3     4442     TIP3     H2       HT       0.417000       1.00800           0
     35637 TIP3     4443     TIP3     OH2      OT      -0.834000       15.9994           0
     35638 TIP3     4443     TIP3     H1       HT       0.417000       1.00800           0
     35639 TIP3     4443     TIP3     H2       HT       0.417000       1.00800           0
     35640 TIP3     4444     TIP3     OH2      OT      -0.834000       15.9994           0
     35641 TIP3     4444     TIP3     H1       HT       0.417000       1.00800           0
     35642 TIP3     4444     TIP3     H2       HT       0.417000       1.00800           0
     35643 TIP3     4445     TIP3     OH2      OT      -0.834000       15.9994           0
     35644 TIP3     4445     TIP3     H1       HT       0.417000       1.00800           0
     35645 TIP3     4445     TIP3     H2       HT       0.417000       1.00800           0
     35646 TIP3     4446     TIP3     OH2      OT      -0.834000       15.9994           0
     35647 TIP3     4446     TIP3     H1       HT       0.417000       1.00800           0
     35648 TIP3     4446     TIP3     H2       HT       0.417000       1.00800           0
     35649 TIP3     4447     TIP3     OH2      OT      -0.834000       15.9994           0
     35650 TIP3     4447     TIP3     H1       HT       0.417000       1.00800           0
     35651 TIP3     4447     TIP3     H2       HT       0.417000       1.00800           0
     35652 TIP3     4448     TIP3     OH2      OT      -0.834000       15.9994           0
     35653 TIP3     4448     TIP3     H1       HT       0.417000       1.00800           0
     35654 TIP3     4448     TIP3     H2       HT       0.417000       1.00800           0
     35655 TIP3     4449     TIP3     OH2      OT      -0.834000       15.9994           0
     35656 TIP3     4449     TIP3     H1       HT       0.417000       1.00800           0
     35657 TIP3     4449     TIP3     H2       HT       0.417000       1.00800           0
     35658 TIP3     4450     TIP3     OH2      OT      -0.834000       15.9994           0
     35659 TIP3     4450     TIP3     H1       HT       0.417000       1.00800           0
     35660 TIP3     4450     TIP3     H2       HT       0.417000       1.00800           0
     35661 TIP3     4451     TIP3     OH2      OT      -0.834000       15.9994           0
     35662 TIP3     4451     TIP3     H1       HT       0.417000       1.00800           0
     35663 TIP3     4451     TIP3     H2       HT       0.417000       1.00800           0
     35664 TIP3     4452     TIP3     OH2      OT      -0.834000       15.9994           0
     35665 TIP3     4452     TIP3     H1       HT       0.417000       1.00800           0
     35666 TIP3     4452     TIP3     H2       HT       0.417000       1.00800           0
     35667 TIP3     4453     TIP3     OH2      OT      -0.834000       15.9994           0
     35668 TIP3     4453     TIP3     H1       HT       0.417000       1.00800           0
     35669 TIP3     4453     TIP3     H2       HT       0.417000       1.00800           0
     35670 TIP3     4454     TIP3     OH2      OT      -0.834000       15.9994           0
     35671 TIP3     4454     TIP3     H1       HT       0.417000       1.00800           0
     35672 TIP3     4454     TIP3     H2       HT       0.417000       1.00800           0
     35673 TIP3     4455     TIP3     OH2      OT      -0.834000       15.9994           0
     35674 TIP3     4455     TIP3     H1       HT       0.417000       1.00800           0
     35675 TIP3     4455     TIP3     H2       HT       0.417000       1.00800           0
     35676 TIP3     4456     TIP3     OH2      OT      -0.834000       15.9994           0
     35677 TIP3     4456     TIP3     H1       HT       0.417000       1.00800           0
     35678 TIP3     4456     TIP3     H2       HT       0.417000       1.00800           0
     35679 TIP3     4457     TIP3     OH2      OT      -0.834000       15.9994           0
     35680 TIP3     4457     TIP3     H1       HT       0.417000       1.00800           0
     35681 TIP3     4457     TIP3     H2       HT       0.417000       1.00800           0
     35682 TIP3     4458     TIP3     OH2      OT      -0.834000       15.9994           0
     35683 TIP3     4458     TIP3     H1       HT       0.417000       1.00800           0
     35684 TIP3     4458     TIP3     H2       HT       0.417000       1.00800           0
     35685 TIP3     4459     TIP3     OH2      OT      -0.834000       15.9994           0
     35686 TIP3     4459     TIP3     H1       HT       0.417000       1.00800           0
     35687 TIP3     4459     TIP3     H2       HT       0.417000       1.00800           0
     35688 TIP3     4460     TIP3     OH2      OT      -0.834000       15.9994           0
     35689 TIP3     4460     TIP3     H1       HT       0.417000       1.00800           0
     35690 TIP3     4460     TIP3     H2       HT       0.417000       1.00800           0
     35691 TIP3     4461     TIP3     OH2      OT      -0.834000       15.9994           0
     35692 TIP3     4461     TIP3     H1       HT       0.417000       1.00800           0
     35693 TIP3     4461     TIP3     H2       HT       0.417000       1.00800           0
     35694 TIP3     4462     TIP3     OH2      OT      -0.834000       15.9994           0
     35695 TIP3     4462     TIP3     H1       HT       0.417000       1.00800           0
     35696 TIP3     4462     TIP3     H2       HT       0.417000       1.00800           0
     35697 TIP3     4463     TIP3     OH2      OT      -0.834000       15.9994           0
     35698 TIP3     4463     TIP3     H1       HT       0.417000       1.00800           0
     35699 TIP3     4463     TIP3     H2       HT       0.417000       1.00800           0
     35700 TIP3     4464     TIP3     OH2      OT      -0.834000       15.9994           0
     35701 TIP3     4464     TIP3     H1       HT       0.417000       1.00800           0
     35702 TIP3     4464     TIP3     H2       HT       0.417000       1.00800           0
     35703 TIP3     4465     TIP3     OH2      OT      -0.834000       15.9994           0
     35704 TIP3     4465     TIP3     H1       HT       0.417000       1.00800           0
     35705 TIP3     4465     TIP3     H2       HT       0.417000       1.00800           0
     35706 TIP3     4466     TIP3     OH2      OT      -0.834000       15.9994           0
     35707 TIP3     4466     TIP3     H1       HT       0.417000       1.00800           0
     35708 TIP3     4466     TIP3     H2       HT       0.417000       1.00800           0
     35709 TIP3     4467     TIP3     OH2      OT      -0.834000       15.9994           0
     35710 TIP3     4467     TIP3     H1       HT       0.417000       1.00800           0
     35711 TIP3     4467     TIP3     H2       HT       0.417000       1.00800           0
     35712 TIP3     4468     TIP3     OH2      OT      -0.834000       15.9994           0
     35713 TIP3     4468     TIP3     H1       HT       0.417000       1.00800           0
     35714 TIP3     4468     TIP3     H2       HT       0.417000       1.00800           0
     35715 TIP3     4469     TIP3     OH2      OT      -0.834000       15.9994           0
     35716 TIP3     4469     TIP3     H1       HT       0.417000       1.00800           0
     35717 TIP3     4469     TIP3     H2       HT       0.417000       1.00800           0
     35718 TIP3     4470     TIP3     OH2      OT      -0.834000       15.9994           0
     35719 TIP3     4470     TIP3     H1       HT       0.417000       1.00800           0
     35720 TIP3     4470     TIP3     H2       HT       0.417000       1.00800           0
     35721 TIP3     4471     TIP3     OH2      OT      -0.834000       15.9994           0
     35722 TIP3     4471     TIP3     H1       HT       0.417000       1.00800           0
     35723 TIP3     4471     TIP3     H2       HT       0.417000       1.00800           0
     35724 TIP3     4472     TIP3     OH2      OT      -0.834000       15.9994           0
     35725 TIP3     4472     TIP3     H1       HT       0.417000       1.00800           0
     35726 TIP3     4472     TIP3     H2       HT       0.417000       1.00800           0
     35727 TIP3     4473     TIP3     OH2      OT      -0.834000       15.9994           0
     35728 TIP3     4473     TIP3     H1       HT       0.417000       1.00800           0
     35729 TIP3     4473     TIP3     H2       HT       0.417000       1.00800           0
     35730 TIP3     4474     TIP3     OH2      OT      -0.834000       15.9994           0
     35731 TIP3     4474     TIP3     H1       HT       0.417000       1.00800           0
     35732 TIP3     4474     TIP3     H2       HT       0.417000       1.00800           0
     35733 TIP3     4475     TIP3     OH2      OT      -0.834000       15.9994           0
     35734 TIP3     4475     TIP3     H1       HT       0.417000       1.00800           0
     35735 TIP3     4475     TIP3     H2       HT       0.417000       1.00800           0
     35736 TIP3     4476     TIP3     OH2      OT      -0.834000       15.9994           0
     35737 TIP3     4476     TIP3     H1       HT       0.417000       1.00800           0
     35738 TIP3     4476     TIP3     H2       HT       0.417000       1.00800           0
     35739 TIP3     4477     TIP3     OH2      OT      -0.834000       15.9994           0
     35740 TIP3     4477     TIP3     H1       HT       0.417000       1.00800           0
     35741 TIP3     4477     TIP3     H2       HT       0.417000       1.00800           0
     35742 TIP3     4478     TIP3     OH2      OT      -0.834000       15.9994           0
     35743 TIP3     4478     TIP3     H1       HT       0.417000       1.00800           0
     35744 TIP3     4478     TIP3     H2       HT       0.417000       1.00800           0
     35745 TIP3     4479     TIP3     OH2      OT      -0.834000       15.9994           0
     35746 TIP3     4479     TIP3     H1       HT       0.417000       1.00800           0
     35747 TIP3     4479     TIP3     H2       HT       0.417000       1.00800           0
     35748 TIP3     4480     TIP3     OH2      OT      -0.834000       15.9994           0
     35749 TIP3     4480     TIP3     H1       HT       0.417000       1.00800           0
     35750 TIP3     4480     TIP3     H2       HT       0.417000       1.00800           0
     35751 TIP3     4481     TIP3     OH2      OT      -0.834000       15.9994           0
     35752 TIP3     4481     TIP3     H1       HT       0.417000       1.00800           0
     35753 TIP3     4481     TIP3     H2       HT       0.417000       1.00800           0
     35754 TIP3     4482     TIP3     OH2      OT      -0.834000       15.9994           0
     35755 TIP3     4482     TIP3     H1       HT       0.417000       1.00800           0
     35756 TIP3     4482     TIP3     H2       HT       0.417000       1.00800           0
     35757 TIP3     4483     TIP3     OH2      OT      -0.834000       15.9994           0
     35758 TIP3     4483     TIP3     H1       HT       0.417000       1.00800           0
     35759 TIP3     4483     TIP3     H2       HT       0.417000       1.00800           0
     35760 TIP3     4484     TIP3     OH2      OT      -0.834000       15.9994           0
     35761 TIP3     4484     TIP3     H1       HT       0.417000       1.00800           0
     35762 TIP3     4484     TIP3     H2       HT       0.417000       1.00800           0
     35763 TIP3     4485     TIP3     OH2      OT      -0.834000       15.9994           0
     35764 TIP3     4485     TIP3     H1       HT       0.417000       1.00800           0
     35765 TIP3     4485     TIP3     H2       HT       0.417000       1.00800           0
     35766 TIP3     4486     TIP3     OH2      OT      -0.834000       15.9994           0
     35767 TIP3     4486     TIP3     H1       HT       0.417000       1.00800           0
     35768 TIP3     4486     TIP3     H2       HT       0.417000       1.00800           0
     35769 TIP3     4487     TIP3     OH2      OT      -0.834000       15.9994           0
     35770 TIP3     4487     TIP3     H1       HT       0.417000       1.00800           0
     35771 TIP3     4487     TIP3     H2       HT       0.417000       1.00800           0
     35772 TIP3     4488     TIP3     OH2      OT      -0.834000       15.9994           0
     35773 TIP3     4488     TIP3     H1       HT       0.417000       1.00800           0
     35774 TIP3     4488     TIP3     H2       HT       0.417000       1.00800           0
     35775 TIP3     4489     TIP3     OH2      OT      -0.834000       15.9994           0
     35776 TIP3     4489     TIP3     H1       HT       0.417000       1.00800           0
     35777 TIP3     4489     TIP3     H2       HT       0.417000       1.00800           0
     35778 TIP3     4490     TIP3     OH2      OT      -0.834000       15.9994           0
     35779 TIP3     4490     TIP3     H1       HT       0.417000       1.00800           0
     35780 TIP3     4490     TIP3     H2       HT       0.417000       1.00800           0
     35781 TIP3     4491     TIP3     OH2      OT      -0.834000       15.9994           0
     35782 TIP3     4491     TIP3     H1       HT       0.417000       1.00800           0
     35783 TIP3     4491     TIP3     H2       HT       0.417000       1.00800           0
     35784 TIP3     4492     TIP3     OH2      OT      -0.834000       15.9994           0
     35785 TIP3     4492     TIP3     H1       HT       0.417000       1.00800           0
     35786 TIP3     4492     TIP3     H2       HT       0.417000       1.00800           0
     35787 TIP3     4493     TIP3     OH2      OT      -0.834000       15.9994           0
     35788 TIP3     4493     TIP3     H1       HT       0.417000       1.00800           0
     35789 TIP3     4493     TIP3     H2       HT       0.417000       1.00800           0
     35790 TIP3     4494     TIP3     OH2      OT      -0.834000       15.9994           0
     35791 TIP3     4494     TIP3     H1       HT       0.417000       1.00800           0
     35792 TIP3     4494     TIP3     H2       HT       0.417000       1.00800           0
     35793 TIP3     4495     TIP3     OH2      OT      -0.834000       15.9994           0
     35794 TIP3     4495     TIP3     H1       HT       0.417000       1.00800           0
     35795 TIP3     4495     TIP3     H2       HT       0.417000       1.00800           0
     35796 TIP3     4496     TIP3     OH2      OT      -0.834000       15.9994           0
     35797 TIP3     4496     TIP3     H1       HT       0.417000       1.00800           0
     35798 TIP3     4496     TIP3     H2       HT       0.417000       1.00800           0
     35799 TIP3     4497     TIP3     OH2      OT      -0.834000       15.9994           0
     35800 TIP3     4497     TIP3     H1       HT       0.417000       1.00800           0
     35801 TIP3     4497     TIP3     H2       HT       0.417000       1.00800           0
     35802 TIP3     4498     TIP3     OH2      OT      -0.834000       15.9994           0
     35803 TIP3     4498     TIP3     H1       HT       0.417000       1.00800           0
     35804 TIP3     4498     TIP3     H2       HT       0.417000       1.00800           0
     35805 TIP3     4499     TIP3     OH2      OT      -0.834000       15.9994           0
     35806 TIP3     4499     TIP3     H1       HT       0.417000       1.00800           0
     35807 TIP3     4499     TIP3     H2       HT       0.417000       1.00800           0
     35808 TIP3     4500     TIP3     OH2      OT      -0.834000       15.9994           0
     35809 TIP3     4500     TIP3     H1       HT       0.417000       1.00800           0
     35810 TIP3     4500     TIP3     H2       HT       0.417000       1.00800           0
     35811 TIP3     4501     TIP3     OH2      OT      -0.834000       15.9994           0
     35812 TIP3     4501     TIP3     H1       HT       0.417000       1.00800           0
     35813 TIP3     4501     TIP3     H2       HT       0.417000       1.00800           0
     35814 TIP3     4502     TIP3     OH2      OT      -0.834000       15.9994           0
     35815 TIP3     4502     TIP3     H1       HT       0.417000       1.00800           0
     35816 TIP3     4502     TIP3     H2       HT       0.417000       1.00800           0
     35817 TIP3     4503     TIP3     OH2      OT      -0.834000       15.9994           0
     35818 TIP3     4503     TIP3     H1       HT       0.417000       1.00800           0
     35819 TIP3     4503     TIP3     H2       HT       0.417000       1.00800           0
     35820 TIP3     4504     TIP3     OH2      OT      -0.834000       15.9994           0
     35821 TIP3     4504     TIP3     H1       HT       0.417000       1.00800           0
     35822 TIP3     4504     TIP3     H2       HT       0.417000       1.00800           0
     35823 TIP3     4505     TIP3     OH2      OT      -0.834000       15.9994           0
     35824 TIP3     4505     TIP3     H1       HT       0.417000       1.00800           0
     35825 TIP3     4505     TIP3     H2       HT       0.417000       1.00800           0
     35826 TIP3     4506     TIP3     OH2      OT      -0.834000       15.9994           0
     35827 TIP3     4506     TIP3     H1       HT       0.417000       1.00800           0
     35828 TIP3     4506     TIP3     H2       HT       0.417000       1.00800           0
     35829 TIP3     4507     TIP3     OH2      OT      -0.834000       15.9994           0
     35830 TIP3     4507     TIP3     H1       HT       0.417000       1.00800           0
     35831 TIP3     4507     TIP3     H2       HT       0.417000       1.00800           0
     35832 TIP3     4508     TIP3     OH2      OT      -0.834000       15.9994           0
     35833 TIP3     4508     TIP3     H1       HT       0.417000       1.00800           0
     35834 TIP3     4508     TIP3     H2       HT       0.417000       1.00800           0
     35835 TIP3     4509     TIP3     OH2      OT      -0.834000       15.9994           0
     35836 TIP3     4509     TIP3     H1       HT       0.417000       1.00800           0
     35837 TIP3     4509     TIP3     H2       HT       0.417000       1.00800           0
     35838 TIP3     4510     TIP3     OH2      OT      -0.834000       15.9994           0
     35839 TIP3     4510     TIP3     H1       HT       0.417000       1.00800           0
     35840 TIP3     4510     TIP3     H2       HT       0.417000       1.00800           0
     35841 TIP3     4511     TIP3     OH2      OT      -0.834000       15.9994           0
     35842 TIP3     4511     TIP3     H1       HT       0.417000       1.00800           0
     35843 TIP3     4511     TIP3     H2       HT       0.417000       1.00800           0
     35844 TIP3     4512     TIP3     OH2      OT      -0.834000       15.9994           0
     35845 TIP3     4512     TIP3     H1       HT       0.417000       1.00800           0
     35846 TIP3     4512     TIP3     H2       HT       0.417000       1.00800           0
     35847 TIP3     4513     TIP3     OH2      OT      -0.834000       15.9994           0
     35848 TIP3     4513     TIP3     H1       HT       0.417000       1.00800           0
     35849 TIP3     4513     TIP3     H2       HT       0.417000       1.00800           0
     35850 TIP3     4514     TIP3     OH2      OT      -0.834000       15.9994           0
     35851 TIP3     4514     TIP3     H1       HT       0.417000       1.00800           0
     35852 TIP3     4514     TIP3     H2       HT       0.417000       1.00800           0
     35853 TIP3     4515     TIP3     OH2      OT      -0.834000       15.9994           0
     35854 TIP3     4515     TIP3     H1       HT       0.417000       1.00800           0
     35855 TIP3     4515     TIP3     H2       HT       0.417000       1.00800           0
     35856 TIP3     4516     TIP3     OH2      OT      -0.834000       15.9994           0
     35857 TIP3     4516     TIP3     H1       HT       0.417000       1.00800           0
     35858 TIP3     4516     TIP3     H2       HT       0.417000       1.00800           0
     35859 TIP3     4517     TIP3     OH2      OT      -0.834000       15.9994           0
     35860 TIP3     4517     TIP3     H1       HT       0.417000       1.00800           0
     35861 TIP3     4517     TIP3     H2       HT       0.417000       1.00800           0
     35862 TIP3     4518     TIP3     OH2      OT      -0.834000       15.9994           0
     35863 TIP3     4518     TIP3     H1       HT       0.417000       1.00800           0
     35864 TIP3     4518     TIP3     H2       HT       0.417000       1.00800           0
     35865 TIP3     4519     TIP3     OH2      OT      -0.834000       15.9994           0
     35866 TIP3     4519     TIP3     H1       HT       0.417000       1.00800           0
     35867 TIP3     4519     TIP3     H2       HT       0.417000       1.00800           0
     35868 TIP3     4520     TIP3     OH2      OT      -0.834000       15.9994           0
     35869 TIP3     4520     TIP3     H1       HT       0.417000       1.00800           0
     35870 TIP3     4520     TIP3     H2       HT       0.417000       1.00800           0
     35871 TIP3     4521     TIP3     OH2      OT      -0.834000       15.9994           0
     35872 TIP3     4521     TIP3     H1       HT       0.417000       1.00800           0
     35873 TIP3     4521     TIP3     H2       HT       0.417000       1.00800           0
     35874 TIP3     4522     TIP3     OH2      OT      -0.834000       15.9994           0
     35875 TIP3     4522     TIP3     H1       HT       0.417000       1.00800           0
     35876 TIP3     4522     TIP3     H2       HT       0.417000       1.00800           0
     35877 TIP3     4523     TIP3     OH2      OT      -0.834000       15.9994           0
     35878 TIP3     4523     TIP3     H1       HT       0.417000       1.00800           0
     35879 TIP3     4523     TIP3     H2       HT       0.417000       1.00800           0
     35880 TIP3     4524     TIP3     OH2      OT      -0.834000       15.9994           0
     35881 TIP3     4524     TIP3     H1       HT       0.417000       1.00800           0
     35882 TIP3     4524     TIP3     H2       HT       0.417000       1.00800           0
     35883 TIP3     4525     TIP3     OH2      OT      -0.834000       15.9994           0
     35884 TIP3     4525     TIP3     H1       HT       0.417000       1.00800           0
     35885 TIP3     4525     TIP3     H2       HT       0.417000       1.00800           0
     35886 TIP3     4526     TIP3     OH2      OT      -0.834000       15.9994           0
     35887 TIP3     4526     TIP3     H1       HT       0.417000       1.00800           0
     35888 TIP3     4526     TIP3     H2       HT       0.417000       1.00800           0
     35889 TIP3     4527     TIP3     OH2      OT      -0.834000       15.9994           0
     35890 TIP3     4527     TIP3     H1       HT       0.417000       1.00800           0
     35891 TIP3     4527     TIP3     H2       HT       0.417000       1.00800           0
     35892 TIP3     4528     TIP3     OH2      OT      -0.834000       15.9994           0
     35893 TIP3     4528     TIP3     H1       HT       0.417000       1.00800           0
     35894 TIP3     4528     TIP3     H2       HT       0.417000       1.00800           0
     35895 TIP3     4529     TIP3     OH2      OT      -0.834000       15.9994           0
     35896 TIP3     4529     TIP3     H1       HT       0.417000       1.00800           0
     35897 TIP3     4529     TIP3     H2       HT       0.417000       1.00800           0
     35898 TIP3     4530     TIP3     OH2      OT      -0.834000       15.9994           0
     35899 TIP3     4530     TIP3     H1       HT       0.417000       1.00800           0
     35900 TIP3     4530     TIP3     H2       HT       0.417000       1.00800           0
     35901 TIP3     4531     TIP3     OH2      OT      -0.834000       15.9994           0
     35902 TIP3     4531     TIP3     H1       HT       0.417000       1.00800           0
     35903 TIP3     4531     TIP3     H2       HT       0.417000       1.00800           0
     35904 TIP3     4532     TIP3     OH2      OT      -0.834000       15.9994           0
     35905 TIP3     4532     TIP3     H1       HT       0.417000       1.00800           0
     35906 TIP3     4532     TIP3     H2       HT       0.417000       1.00800           0
     35907 TIP3     4533     TIP3     OH2      OT      -0.834000       15.9994           0
     35908 TIP3     4533     TIP3     H1       HT       0.417000       1.00800           0
     35909 TIP3     4533     TIP3     H2       HT       0.417000       1.00800           0
     35910 TIP3     4534     TIP3     OH2      OT      -0.834000       15.9994           0
     35911 TIP3     4534     TIP3     H1       HT       0.417000       1.00800           0
     35912 TIP3     4534     TIP3     H2       HT       0.417000       1.00800           0
     35913 TIP3     4535     TIP3     OH2      OT      -0.834000       15.9994           0
     35914 TIP3     4535     TIP3     H1       HT       0.417000       1.00800           0
     35915 TIP3     4535     TIP3     H2       HT       0.417000       1.00800           0
     35916 TIP3     4536     TIP3     OH2      OT      -0.834000       15.9994           0
     35917 TIP3     4536     TIP3     H1       HT       0.417000       1.00800           0
     35918 TIP3     4536     TIP3     H2       HT       0.417000       1.00800           0
     35919 TIP3     4537     TIP3     OH2      OT      -0.834000       15.9994           0
     35920 TIP3     4537     TIP3     H1       HT       0.417000       1.00800           0
     35921 TIP3     4537     TIP3     H2       HT       0.417000       1.00800           0
     35922 TIP3     4538     TIP3     OH2      OT      -0.834000       15.9994           0
     35923 TIP3     4538     TIP3     H1       HT       0.417000       1.00800           0
     35924 TIP3     4538     TIP3     H2       HT       0.417000       1.00800           0
     35925 TIP3     4539     TIP3     OH2      OT      -0.834000       15.9994           0
     35926 TIP3     4539     TIP3     H1       HT       0.417000       1.00800           0
     35927 TIP3     4539     TIP3     H2       HT       0.417000       1.00800           0
     35928 TIP3     4540     TIP3     OH2      OT      -0.834000       15.9994           0
     35929 TIP3     4540     TIP3     H1       HT       0.417000       1.00800           0
     35930 TIP3     4540     TIP3     H2       HT       0.417000       1.00800           0
     35931 TIP3     4541     TIP3     OH2      OT      -0.834000       15.9994           0
     35932 TIP3     4541     TIP3     H1       HT       0.417000       1.00800           0
     35933 TIP3     4541     TIP3     H2       HT       0.417000       1.00800           0
     35934 TIP3     4542     TIP3     OH2      OT      -0.834000       15.9994           0
     35935 TIP3     4542     TIP3     H1       HT       0.417000       1.00800           0
     35936 TIP3     4542     TIP3     H2       HT       0.417000       1.00800           0
     35937 TIP3     4543     TIP3     OH2      OT      -0.834000       15.9994           0
     35938 TIP3     4543     TIP3     H1       HT       0.417000       1.00800           0
     35939 TIP3     4543     TIP3     H2       HT       0.417000       1.00800           0
     35940 TIP3     4544     TIP3     OH2      OT      -0.834000       15.9994           0
     35941 TIP3     4544     TIP3     H1       HT       0.417000       1.00800           0
     35942 TIP3     4544     TIP3     H2       HT       0.417000       1.00800           0
     35943 TIP3     4545     TIP3     OH2      OT      -0.834000       15.9994           0
     35944 TIP3     4545     TIP3     H1       HT       0.417000       1.00800           0
     35945 TIP3     4545     TIP3     H2       HT       0.417000       1.00800           0
     35946 TIP3     4546     TIP3     OH2      OT      -0.834000       15.9994           0
     35947 TIP3     4546     TIP3     H1       HT       0.417000       1.00800           0
     35948 TIP3     4546     TIP3     H2       HT       0.417000       1.00800           0
     35949 TIP3     4547     TIP3     OH2      OT      -0.834000       15.9994           0
     35950 TIP3     4547     TIP3     H1       HT       0.417000       1.00800           0
     35951 TIP3     4547     TIP3     H2       HT       0.417000       1.00800           0
     35952 TIP3     4548     TIP3     OH2      OT      -0.834000       15.9994           0
     35953 TIP3     4548     TIP3     H1       HT       0.417000       1.00800           0
     35954 TIP3     4548     TIP3     H2       HT       0.417000       1.00800           0
     35955 TIP3     4549     TIP3     OH2      OT      -0.834000       15.9994           0
     35956 TIP3     4549     TIP3     H1       HT       0.417000       1.00800           0
     35957 TIP3     4549     TIP3     H2       HT       0.417000       1.00800           0
     35958 TIP3     4550     TIP3     OH2      OT      -0.834000       15.9994           0
     35959 TIP3     4550     TIP3     H1       HT       0.417000       1.00800           0
     35960 TIP3     4550     TIP3     H2       HT       0.417000       1.00800           0
     35961 TIP3     4551     TIP3     OH2      OT      -0.834000       15.9994           0
     35962 TIP3     4551     TIP3     H1       HT       0.417000       1.00800           0
     35963 TIP3     4551     TIP3     H2       HT       0.417000       1.00800           0
     35964 TIP3     4552     TIP3     OH2      OT      -0.834000       15.9994           0
     35965 TIP3     4552     TIP3     H1       HT       0.417000       1.00800           0
     35966 TIP3     4552     TIP3     H2       HT       0.417000       1.00800           0
     35967 TIP3     4553     TIP3     OH2      OT      -0.834000       15.9994           0
     35968 TIP3     4553     TIP3     H1       HT       0.417000       1.00800           0
     35969 TIP3     4553     TIP3     H2       HT       0.417000       1.00800           0
     35970 TIP3     4554     TIP3     OH2      OT      -0.834000       15.9994           0
     35971 TIP3     4554     TIP3     H1       HT       0.417000       1.00800           0
     35972 TIP3     4554     TIP3     H2       HT       0.417000       1.00800           0
     35973 TIP3     4555     TIP3     OH2      OT      -0.834000       15.9994           0
     35974 TIP3     4555     TIP3     H1       HT       0.417000       1.00800           0
     35975 TIP3     4555     TIP3     H2       HT       0.417000       1.00800           0
     35976 TIP3     4556     TIP3     OH2      OT      -0.834000       15.9994           0
     35977 TIP3     4556     TIP3     H1       HT       0.417000       1.00800           0
     35978 TIP3     4556     TIP3     H2       HT       0.417000       1.00800           0
     35979 TIP3     4557     TIP3     OH2      OT      -0.834000       15.9994           0
     35980 TIP3     4557     TIP3     H1       HT       0.417000       1.00800           0
     35981 TIP3     4557     TIP3     H2       HT       0.417000       1.00800           0
     35982 TIP3     4558     TIP3     OH2      OT      -0.834000       15.9994           0
     35983 TIP3     4558     TIP3     H1       HT       0.417000       1.00800           0
     35984 TIP3     4558     TIP3     H2       HT       0.417000       1.00800           0
     35985 TIP3     4559     TIP3     OH2      OT      -0.834000       15.9994           0
     35986 TIP3     4559     TIP3     H1       HT       0.417000       1.00800           0
     35987 TIP3     4559     TIP3     H2       HT       0.417000       1.00800           0
     35988 TIP3     4560     TIP3     OH2      OT      -0.834000       15.9994           0
     35989 TIP3     4560     TIP3     H1       HT       0.417000       1.00800           0
     35990 TIP3     4560     TIP3     H2       HT       0.417000       1.00800           0
     35991 TIP3     4561     TIP3     OH2      OT      -0.834000       15.9994           0
     35992 TIP3     4561     TIP3     H1       HT       0.417000       1.00800           0
     35993 TIP3     4561     TIP3     H2       HT       0.417000       1.00800           0
     35994 TIP3     4562     TIP3     OH2      OT      -0.834000       15.9994           0
     35995 TIP3     4562     TIP3     H1       HT       0.417000       1.00800           0
     35996 TIP3     4562     TIP3     H2       HT       0.417000       1.00800           0
     35997 TIP3     4563     TIP3     OH2      OT      -0.834000       15.9994           0
     35998 TIP3     4563     TIP3     H1       HT       0.417000       1.00800           0
     35999 TIP3     4563     TIP3     H2       HT       0.417000       1.00800           0
     36000 TIP3     4564     TIP3     OH2      OT      -0.834000       15.9994           0
     36001 TIP3     4564     TIP3     H1       HT       0.417000       1.00800           0
     36002 TIP3     4564     TIP3     H2       HT       0.417000       1.00800           0
     36003 TIP3     4565     TIP3     OH2      OT      -0.834000       15.9994           0
     36004 TIP3     4565     TIP3     H1       HT       0.417000       1.00800           0
     36005 TIP3     4565     TIP3     H2       HT       0.417000       1.00800           0
     36006 TIP3     4566     TIP3     OH2      OT      -0.834000       15.9994           0
     36007 TIP3     4566     TIP3     H1       HT       0.417000       1.00800           0
     36008 TIP3     4566     TIP3     H2       HT       0.417000       1.00800           0
     36009 TIP3     4567     TIP3     OH2      OT      -0.834000       15.9994           0
     36010 TIP3     4567     TIP3     H1       HT       0.417000       1.00800           0
     36011 TIP3     4567     TIP3     H2       HT       0.417000       1.00800           0
     36012 TIP3     4568     TIP3     OH2      OT      -0.834000       15.9994           0
     36013 TIP3     4568     TIP3     H1       HT       0.417000       1.00800           0
     36014 TIP3     4568     TIP3     H2       HT       0.417000       1.00800           0
     36015 TIP3     4569     TIP3     OH2      OT      -0.834000       15.9994           0
     36016 TIP3     4569     TIP3     H1       HT       0.417000       1.00800           0
     36017 TIP3     4569     TIP3     H2       HT       0.417000       1.00800           0
     36018 TIP3     4570     TIP3     OH2      OT      -0.834000       15.9994           0
     36019 TIP3     4570     TIP3     H1       HT       0.417000       1.00800           0
     36020 TIP3     4570     TIP3     H2       HT       0.417000       1.00800           0
     36021 TIP3     4571     TIP3     OH2      OT      -0.834000       15.9994           0
     36022 TIP3     4571     TIP3     H1       HT       0.417000       1.00800           0
     36023 TIP3     4571     TIP3     H2       HT       0.417000       1.00800           0
     36024 TIP3     4572     TIP3     OH2      OT      -0.834000       15.9994           0
     36025 TIP3     4572     TIP3     H1       HT       0.417000       1.00800           0
     36026 TIP3     4572     TIP3     H2       HT       0.417000       1.00800           0
     36027 TIP3     4573     TIP3     OH2      OT      -0.834000       15.9994           0
     36028 TIP3     4573     TIP3     H1       HT       0.417000       1.00800           0
     36029 TIP3     4573     TIP3     H2       HT       0.417000       1.00800           0
     36030 TIP3     4574     TIP3     OH2      OT      -0.834000       15.9994           0
     36031 TIP3     4574     TIP3     H1       HT       0.417000       1.00800           0
     36032 TIP3     4574     TIP3     H2       HT       0.417000       1.00800           0
     36033 TIP3     4575     TIP3     OH2      OT      -0.834000       15.9994           0
     36034 TIP3     4575     TIP3     H1       HT       0.417000       1.00800           0
     36035 TIP3     4575     TIP3     H2       HT       0.417000       1.00800           0
     36036 TIP3     4576     TIP3     OH2      OT      -0.834000       15.9994           0
     36037 TIP3     4576     TIP3     H1       HT       0.417000       1.00800           0
     36038 TIP3     4576     TIP3     H2       HT       0.417000       1.00800           0
     36039 TIP3     4577     TIP3     OH2      OT      -0.834000       15.9994           0
     36040 TIP3     4577     TIP3     H1       HT       0.417000       1.00800           0
     36041 TIP3     4577     TIP3     H2       HT       0.417000       1.00800           0
     36042 TIP3     4578     TIP3     OH2      OT      -0.834000       15.9994           0
     36043 TIP3     4578     TIP3     H1       HT       0.417000       1.00800           0
     36044 TIP3     4578     TIP3     H2       HT       0.417000       1.00800           0
     36045 TIP3     4579     TIP3     OH2      OT      -0.834000       15.9994           0
     36046 TIP3     4579     TIP3     H1       HT       0.417000       1.00800           0
     36047 TIP3     4579     TIP3     H2       HT       0.417000       1.00800           0
     36048 TIP3     4580     TIP3     OH2      OT      -0.834000       15.9994           0
     36049 TIP3     4580     TIP3     H1       HT       0.417000       1.00800           0
     36050 TIP3     4580     TIP3     H2       HT       0.417000       1.00800           0
     36051 TIP3     4581     TIP3     OH2      OT      -0.834000       15.9994           0
     36052 TIP3     4581     TIP3     H1       HT       0.417000       1.00800           0
     36053 TIP3     4581     TIP3     H2       HT       0.417000       1.00800           0
     36054 TIP3     4582     TIP3     OH2      OT      -0.834000       15.9994           0
     36055 TIP3     4582     TIP3     H1       HT       0.417000       1.00800           0
     36056 TIP3     4582     TIP3     H2       HT       0.417000       1.00800           0
     36057 TIP3     4583     TIP3     OH2      OT      -0.834000       15.9994           0
     36058 TIP3     4583     TIP3     H1       HT       0.417000       1.00800           0
     36059 TIP3     4583     TIP3     H2       HT       0.417000       1.00800           0
     36060 TIP3     4584     TIP3     OH2      OT      -0.834000       15.9994           0
     36061 TIP3     4584     TIP3     H1       HT       0.417000       1.00800           0
     36062 TIP3     4584     TIP3     H2       HT       0.417000       1.00800           0
     36063 TIP3     4585     TIP3     OH2      OT      -0.834000       15.9994           0
     36064 TIP3     4585     TIP3     H1       HT       0.417000       1.00800           0
     36065 TIP3     4585     TIP3     H2       HT       0.417000       1.00800           0
     36066 TIP3     4586     TIP3     OH2      OT      -0.834000       15.9994           0
     36067 TIP3     4586     TIP3     H1       HT       0.417000       1.00800           0
     36068 TIP3     4586     TIP3     H2       HT       0.417000       1.00800           0
     36069 TIP3     4587     TIP3     OH2      OT      -0.834000       15.9994           0
     36070 TIP3     4587     TIP3     H1       HT       0.417000       1.00800           0
     36071 TIP3     4587     TIP3     H2       HT       0.417000       1.00800           0
     36072 TIP3     4588     TIP3     OH2      OT      -0.834000       15.9994           0
     36073 TIP3     4588     TIP3     H1       HT       0.417000       1.00800           0
     36074 TIP3     4588     TIP3     H2       HT       0.417000       1.00800           0
     36075 TIP3     4589     TIP3     OH2      OT      -0.834000       15.9994           0
     36076 TIP3     4589     TIP3     H1       HT       0.417000       1.00800           0
     36077 TIP3     4589     TIP3     H2       HT       0.417000       1.00800           0
     36078 TIP3     4590     TIP3     OH2      OT      -0.834000       15.9994           0
     36079 TIP3     4590     TIP3     H1       HT       0.417000       1.00800           0
     36080 TIP3     4590     TIP3     H2       HT       0.417000       1.00800           0
     36081 TIP3     4591     TIP3     OH2      OT      -0.834000       15.9994           0
     36082 TIP3     4591     TIP3     H1       HT       0.417000       1.00800           0
     36083 TIP3     4591     TIP3     H2       HT       0.417000       1.00800           0
     36084 TIP3     4592     TIP3     OH2      OT      -0.834000       15.9994           0
     36085 TIP3     4592     TIP3     H1       HT       0.417000       1.00800           0
     36086 TIP3     4592     TIP3     H2       HT       0.417000       1.00800           0
     36087 TIP3     4593     TIP3     OH2      OT      -0.834000       15.9994           0
     36088 TIP3     4593     TIP3     H1       HT       0.417000       1.00800           0
     36089 TIP3     4593     TIP3     H2       HT       0.417000       1.00800           0
     36090 TIP3     4594     TIP3     OH2      OT      -0.834000       15.9994           0
     36091 TIP3     4594     TIP3     H1       HT       0.417000       1.00800           0
     36092 TIP3     4594     TIP3     H2       HT       0.417000       1.00800           0
     36093 TIP3     4595     TIP3     OH2      OT      -0.834000       15.9994           0
     36094 TIP3     4595     TIP3     H1       HT       0.417000       1.00800           0
     36095 TIP3     4595     TIP3     H2       HT       0.417000       1.00800           0
     36096 TIP3     4596     TIP3     OH2      OT      -0.834000       15.9994           0
     36097 TIP3     4596     TIP3     H1       HT       0.417000       1.00800           0
     36098 TIP3     4596     TIP3     H2       HT       0.417000       1.00800           0
     36099 TIP3     4597     TIP3     OH2      OT      -0.834000       15.9994           0
     36100 TIP3     4597     TIP3     H1       HT       0.417000       1.00800           0
     36101 TIP3     4597     TIP3     H2       HT       0.417000       1.00800           0
     36102 TIP3     4598     TIP3     OH2      OT      -0.834000       15.9994           0
     36103 TIP3     4598     TIP3     H1       HT       0.417000       1.00800           0
     36104 TIP3     4598     TIP3     H2       HT       0.417000       1.00800           0
     36105 TIP3     4599     TIP3     OH2      OT      -0.834000       15.9994           0
     36106 TIP3     4599     TIP3     H1       HT       0.417000       1.00800           0
     36107 TIP3     4599     TIP3     H2       HT       0.417000       1.00800           0
     36108 TIP3     4600     TIP3     OH2      OT      -0.834000       15.9994           0
     36109 TIP3     4600     TIP3     H1       HT       0.417000       1.00800           0
     36110 TIP3     4600     TIP3     H2       HT       0.417000       1.00800           0
     36111 TIP3     4601     TIP3     OH2      OT      -0.834000       15.9994           0
     36112 TIP3     4601     TIP3     H1       HT       0.417000       1.00800           0
     36113 TIP3     4601     TIP3     H2       HT       0.417000       1.00800           0
     36114 TIP3     4602     TIP3     OH2      OT      -0.834000       15.9994           0
     36115 TIP3     4602     TIP3     H1       HT       0.417000       1.00800           0
     36116 TIP3     4602     TIP3     H2       HT       0.417000       1.00800           0
     36117 TIP3     4603     TIP3     OH2      OT      -0.834000       15.9994           0
     36118 TIP3     4603     TIP3     H1       HT       0.417000       1.00800           0
     36119 TIP3     4603     TIP3     H2       HT       0.417000       1.00800           0
     36120 TIP3     4604     TIP3     OH2      OT      -0.834000       15.9994           0
     36121 TIP3     4604     TIP3     H1       HT       0.417000       1.00800           0
     36122 TIP3     4604     TIP3     H2       HT       0.417000       1.00800           0
     36123 TIP3     4605     TIP3     OH2      OT      -0.834000       15.9994           0
     36124 TIP3     4605     TIP3     H1       HT       0.417000       1.00800           0
     36125 TIP3     4605     TIP3     H2       HT       0.417000       1.00800           0
     36126 TIP3     4606     TIP3     OH2      OT      -0.834000       15.9994           0
     36127 TIP3     4606     TIP3     H1       HT       0.417000       1.00800           0
     36128 TIP3     4606     TIP3     H2       HT       0.417000       1.00800           0
     36129 TIP3     4607     TIP3     OH2      OT      -0.834000       15.9994           0
     36130 TIP3     4607     TIP3     H1       HT       0.417000       1.00800           0
     36131 TIP3     4607     TIP3     H2       HT       0.417000       1.00800           0
     36132 TIP3     4608     TIP3     OH2      OT      -0.834000       15.9994           0
     36133 TIP3     4608     TIP3     H1       HT       0.417000       1.00800           0
     36134 TIP3     4608     TIP3     H2       HT       0.417000       1.00800           0
     36135 TIP3     4609     TIP3     OH2      OT      -0.834000       15.9994           0
     36136 TIP3     4609     TIP3     H1       HT       0.417000       1.00800           0
     36137 TIP3     4609     TIP3     H2       HT       0.417000       1.00800           0
     36138 TIP3     4610     TIP3     OH2      OT      -0.834000       15.9994           0
     36139 TIP3     4610     TIP3     H1       HT       0.417000       1.00800           0
     36140 TIP3     4610     TIP3     H2       HT       0.417000       1.00800           0
     36141 TIP3     4611     TIP3     OH2      OT      -0.834000       15.9994           0
     36142 TIP3     4611     TIP3     H1       HT       0.417000       1.00800           0
     36143 TIP3     4611     TIP3     H2       HT       0.417000       1.00800           0
     36144 TIP3     4612     TIP3     OH2      OT      -0.834000       15.9994           0
     36145 TIP3     4612     TIP3     H1       HT       0.417000       1.00800           0
     36146 TIP3     4612     TIP3     H2       HT       0.417000       1.00800           0
     36147 TIP3     4613     TIP3     OH2      OT      -0.834000       15.9994           0
     36148 TIP3     4613     TIP3     H1       HT       0.417000       1.00800           0
     36149 TIP3     4613     TIP3     H2       HT       0.417000       1.00800           0
     36150 TIP3     4614     TIP3     OH2      OT      -0.834000       15.9994           0
     36151 TIP3     4614     TIP3     H1       HT       0.417000       1.00800           0
     36152 TIP3     4614     TIP3     H2       HT       0.417000       1.00800           0
     36153 TIP3     4615     TIP3     OH2      OT      -0.834000       15.9994           0
     36154 TIP3     4615     TIP3     H1       HT       0.417000       1.00800           0
     36155 TIP3     4615     TIP3     H2       HT       0.417000       1.00800           0
     36156 TIP3     4616     TIP3     OH2      OT      -0.834000       15.9994           0
     36157 TIP3     4616     TIP3     H1       HT       0.417000       1.00800           0
     36158 TIP3     4616     TIP3     H2       HT       0.417000       1.00800           0
     36159 TIP3     4617     TIP3     OH2      OT      -0.834000       15.9994           0
     36160 TIP3     4617     TIP3     H1       HT       0.417000       1.00800           0
     36161 TIP3     4617     TIP3     H2       HT       0.417000       1.00800           0
     36162 TIP3     4618     TIP3     OH2      OT      -0.834000       15.9994           0
     36163 TIP3     4618     TIP3     H1       HT       0.417000       1.00800           0
     36164 TIP3     4618     TIP3     H2       HT       0.417000       1.00800           0
     36165 TIP3     4619     TIP3     OH2      OT      -0.834000       15.9994           0
     36166 TIP3     4619     TIP3     H1       HT       0.417000       1.00800           0
     36167 TIP3     4619     TIP3     H2       HT       0.417000       1.00800           0
     36168 TIP3     4620     TIP3     OH2      OT      -0.834000       15.9994           0
     36169 TIP3     4620     TIP3     H1       HT       0.417000       1.00800           0
     36170 TIP3     4620     TIP3     H2       HT       0.417000       1.00800           0
     36171 TIP3     4621     TIP3     OH2      OT      -0.834000       15.9994           0
     36172 TIP3     4621     TIP3     H1       HT       0.417000       1.00800           0
     36173 TIP3     4621     TIP3     H2       HT       0.417000       1.00800           0
     36174 TIP3     4622     TIP3     OH2      OT      -0.834000       15.9994           0
     36175 TIP3     4622     TIP3     H1       HT       0.417000       1.00800           0
     36176 TIP3     4622     TIP3     H2       HT       0.417000       1.00800           0
     36177 TIP3     4623     TIP3     OH2      OT      -0.834000       15.9994           0
     36178 TIP3     4623     TIP3     H1       HT       0.417000       1.00800           0
     36179 TIP3     4623     TIP3     H2       HT       0.417000       1.00800           0
     36180 TIP3     4624     TIP3     OH2      OT      -0.834000       15.9994           0
     36181 TIP3     4624     TIP3     H1       HT       0.417000       1.00800           0
     36182 TIP3     4624     TIP3     H2       HT       0.417000       1.00800           0
     36183 TIP3     4625     TIP3     OH2      OT      -0.834000       15.9994           0
     36184 TIP3     4625     TIP3     H1       HT       0.417000       1.00800           0
     36185 TIP3     4625     TIP3     H2       HT       0.417000       1.00800           0
     36186 TIP3     4626     TIP3     OH2      OT      -0.834000       15.9994           0
     36187 TIP3     4626     TIP3     H1       HT       0.417000       1.00800           0
     36188 TIP3     4626     TIP3     H2       HT       0.417000       1.00800           0
     36189 TIP3     4627     TIP3     OH2      OT      -0.834000       15.9994           0
     36190 TIP3     4627     TIP3     H1       HT       0.417000       1.00800           0
     36191 TIP3     4627     TIP3     H2       HT       0.417000       1.00800           0
     36192 TIP3     4628     TIP3     OH2      OT      -0.834000       15.9994           0
     36193 TIP3     4628     TIP3     H1       HT       0.417000       1.00800           0
     36194 TIP3     4628     TIP3     H2       HT       0.417000       1.00800           0
     36195 TIP3     4629     TIP3     OH2      OT      -0.834000       15.9994           0
     36196 TIP3     4629     TIP3     H1       HT       0.417000       1.00800           0
     36197 TIP3     4629     TIP3     H2       HT       0.417000       1.00800           0
     36198 TIP3     4630     TIP3     OH2      OT      -0.834000       15.9994           0
     36199 TIP3     4630     TIP3     H1       HT       0.417000       1.00800           0
     36200 TIP3     4630     TIP3     H2       HT       0.417000       1.00800           0
     36201 TIP3     4631     TIP3     OH2      OT      -0.834000       15.9994           0
     36202 TIP3     4631     TIP3     H1       HT       0.417000       1.00800           0
     36203 TIP3     4631     TIP3     H2       HT       0.417000       1.00800           0
     36204 TIP3     4632     TIP3     OH2      OT      -0.834000       15.9994           0
     36205 TIP3     4632     TIP3     H1       HT       0.417000       1.00800           0
     36206 TIP3     4632     TIP3     H2       HT       0.417000       1.00800           0
     36207 TIP3     4633     TIP3     OH2      OT      -0.834000       15.9994           0
     36208 TIP3     4633     TIP3     H1       HT       0.417000       1.00800           0
     36209 TIP3     4633     TIP3     H2       HT       0.417000       1.00800           0
     36210 TIP3     4634     TIP3     OH2      OT      -0.834000       15.9994           0
     36211 TIP3     4634     TIP3     H1       HT       0.417000       1.00800           0
     36212 TIP3     4634     TIP3     H2       HT       0.417000       1.00800           0
     36213 TIP3     4635     TIP3     OH2      OT      -0.834000       15.9994           0
     36214 TIP3     4635     TIP3     H1       HT       0.417000       1.00800           0
     36215 TIP3     4635     TIP3     H2       HT       0.417000       1.00800           0
     36216 TIP3     4636     TIP3     OH2      OT      -0.834000       15.9994           0
     36217 TIP3     4636     TIP3     H1       HT       0.417000       1.00800           0
     36218 TIP3     4636     TIP3     H2       HT       0.417000       1.00800           0
     36219 TIP3     4637     TIP3     OH2      OT      -0.834000       15.9994           0
     36220 TIP3     4637     TIP3     H1       HT       0.417000       1.00800           0
     36221 TIP3     4637     TIP3     H2       HT       0.417000       1.00800           0
     36222 TIP3     4638     TIP3     OH2      OT      -0.834000       15.9994           0
     36223 TIP3     4638     TIP3     H1       HT       0.417000       1.00800           0
     36224 TIP3     4638     TIP3     H2       HT       0.417000       1.00800           0
     36225 TIP3     4639     TIP3     OH2      OT      -0.834000       15.9994           0
     36226 TIP3     4639     TIP3     H1       HT       0.417000       1.00800           0
     36227 TIP3     4639     TIP3     H2       HT       0.417000       1.00800           0
     36228 TIP3     4640     TIP3     OH2      OT      -0.834000       15.9994           0
     36229 TIP3     4640     TIP3     H1       HT       0.417000       1.00800           0
     36230 TIP3     4640     TIP3     H2       HT       0.417000       1.00800           0
     36231 TIP3     4641     TIP3     OH2      OT      -0.834000       15.9994           0
     36232 TIP3     4641     TIP3     H1       HT       0.417000       1.00800           0
     36233 TIP3     4641     TIP3     H2       HT       0.417000       1.00800           0
     36234 TIP3     4642     TIP3     OH2      OT      -0.834000       15.9994           0
     36235 TIP3     4642     TIP3     H1       HT       0.417000       1.00800           0
     36236 TIP3     4642     TIP3     H2       HT       0.417000       1.00800           0
     36237 TIP3     4643     TIP3     OH2      OT      -0.834000       15.9994           0
     36238 TIP3     4643     TIP3     H1       HT       0.417000       1.00800           0
     36239 TIP3     4643     TIP3     H2       HT       0.417000       1.00800           0
     36240 TIP3     4644     TIP3     OH2      OT      -0.834000       15.9994           0
     36241 TIP3     4644     TIP3     H1       HT       0.417000       1.00800           0
     36242 TIP3     4644     TIP3     H2       HT       0.417000       1.00800           0
     36243 TIP3     4645     TIP3     OH2      OT      -0.834000       15.9994           0
     36244 TIP3     4645     TIP3     H1       HT       0.417000       1.00800           0
     36245 TIP3     4645     TIP3     H2       HT       0.417000       1.00800           0
     36246 TIP3     4646     TIP3     OH2      OT      -0.834000       15.9994           0
     36247 TIP3     4646     TIP3     H1       HT       0.417000       1.00800           0
     36248 TIP3     4646     TIP3     H2       HT       0.417000       1.00800           0
     36249 TIP3     4647     TIP3     OH2      OT      -0.834000       15.9994           0
     36250 TIP3     4647     TIP3     H1       HT       0.417000       1.00800           0
     36251 TIP3     4647     TIP3     H2       HT       0.417000       1.00800           0
     36252 TIP3     4648     TIP3     OH2      OT      -0.834000       15.9994           0
     36253 TIP3     4648     TIP3     H1       HT       0.417000       1.00800           0
     36254 TIP3     4648     TIP3     H2       HT       0.417000       1.00800           0
     36255 TIP3     4649     TIP3     OH2      OT      -0.834000       15.9994           0
     36256 TIP3     4649     TIP3     H1       HT       0.417000       1.00800           0
     36257 TIP3     4649     TIP3     H2       HT       0.417000       1.00800           0
     36258 TIP3     4650     TIP3     OH2      OT      -0.834000       15.9994           0
     36259 TIP3     4650     TIP3     H1       HT       0.417000       1.00800           0
     36260 TIP3     4650     TIP3     H2       HT       0.417000       1.00800           0
     36261 TIP3     4651     TIP3     OH2      OT      -0.834000       15.9994           0
     36262 TIP3     4651     TIP3     H1       HT       0.417000       1.00800           0
     36263 TIP3     4651     TIP3     H2       HT       0.417000       1.00800           0
     36264 TIP3     4652     TIP3     OH2      OT      -0.834000       15.9994           0
     36265 TIP3     4652     TIP3     H1       HT       0.417000       1.00800           0
     36266 TIP3     4652     TIP3     H2       HT       0.417000       1.00800           0
     36267 TIP3     4653     TIP3     OH2      OT      -0.834000       15.9994           0
     36268 TIP3     4653     TIP3     H1       HT       0.417000       1.00800           0
     36269 TIP3     4653     TIP3     H2       HT       0.417000       1.00800           0
     36270 TIP3     4654     TIP3     OH2      OT      -0.834000       15.9994           0
     36271 TIP3     4654     TIP3     H1       HT       0.417000       1.00800           0
     36272 TIP3     4654     TIP3     H2       HT       0.417000       1.00800           0
     36273 TIP3     4655     TIP3     OH2      OT      -0.834000       15.9994           0
     36274 TIP3     4655     TIP3     H1       HT       0.417000       1.00800           0
     36275 TIP3     4655     TIP3     H2       HT       0.417000       1.00800           0
     36276 TIP3     4656     TIP3     OH2      OT      -0.834000       15.9994           0
     36277 TIP3     4656     TIP3     H1       HT       0.417000       1.00800           0
     36278 TIP3     4656     TIP3     H2       HT       0.417000       1.00800           0
     36279 TIP3     4657     TIP3     OH2      OT      -0.834000       15.9994           0
     36280 TIP3     4657     TIP3     H1       HT       0.417000       1.00800           0
     36281 TIP3     4657     TIP3     H2       HT       0.417000       1.00800           0
     36282 TIP3     4658     TIP3     OH2      OT      -0.834000       15.9994           0
     36283 TIP3     4658     TIP3     H1       HT       0.417000       1.00800           0
     36284 TIP3     4658     TIP3     H2       HT       0.417000       1.00800           0
     36285 TIP3     4659     TIP3     OH2      OT      -0.834000       15.9994           0
     36286 TIP3     4659     TIP3     H1       HT       0.417000       1.00800           0
     36287 TIP3     4659     TIP3     H2       HT       0.417000       1.00800           0
     36288 TIP3     4660     TIP3     OH2      OT      -0.834000       15.9994           0
     36289 TIP3     4660     TIP3     H1       HT       0.417000       1.00800           0
     36290 TIP3     4660     TIP3     H2       HT       0.417000       1.00800           0
     36291 TIP3     4661     TIP3     OH2      OT      -0.834000       15.9994           0
     36292 TIP3     4661     TIP3     H1       HT       0.417000       1.00800           0
     36293 TIP3     4661     TIP3     H2       HT       0.417000       1.00800           0
     36294 TIP3     4662     TIP3     OH2      OT      -0.834000       15.9994           0
     36295 TIP3     4662     TIP3     H1       HT       0.417000       1.00800           0
     36296 TIP3     4662     TIP3     H2       HT       0.417000       1.00800           0
     36297 TIP3     4663     TIP3     OH2      OT      -0.834000       15.9994           0
     36298 TIP3     4663     TIP3     H1       HT       0.417000       1.00800           0
     36299 TIP3     4663     TIP3     H2       HT       0.417000       1.00800           0
     36300 TIP3     4664     TIP3     OH2      OT      -0.834000       15.9994           0
     36301 TIP3     4664     TIP3     H1       HT       0.417000       1.00800           0
     36302 TIP3     4664     TIP3     H2       HT       0.417000       1.00800           0
     36303 TIP3     4665     TIP3     OH2      OT      -0.834000       15.9994           0
     36304 TIP3     4665     TIP3     H1       HT       0.417000       1.00800           0
     36305 TIP3     4665     TIP3     H2       HT       0.417000       1.00800           0
     36306 TIP3     4666     TIP3     OH2      OT      -0.834000       15.9994           0
     36307 TIP3     4666     TIP3     H1       HT       0.417000       1.00800           0
     36308 TIP3     4666     TIP3     H2       HT       0.417000       1.00800           0
     36309 TIP3     4667     TIP3     OH2      OT      -0.834000       15.9994           0
     36310 TIP3     4667     TIP3     H1       HT       0.417000       1.00800           0
     36311 TIP3     4667     TIP3     H2       HT       0.417000       1.00800           0
     36312 TIP3     4668     TIP3     OH2      OT      -0.834000       15.9994           0
     36313 TIP3     4668     TIP3     H1       HT       0.417000       1.00800           0
     36314 TIP3     4668     TIP3     H2       HT       0.417000       1.00800           0
     36315 TIP3     4669     TIP3     OH2      OT      -0.834000       15.9994           0
     36316 TIP3     4669     TIP3     H1       HT       0.417000       1.00800           0
     36317 TIP3     4669     TIP3     H2       HT       0.417000       1.00800           0
     36318 TIP3     4670     TIP3     OH2      OT      -0.834000       15.9994           0
     36319 TIP3     4670     TIP3     H1       HT       0.417000       1.00800           0
     36320 TIP3     4670     TIP3     H2       HT       0.417000       1.00800           0
     36321 TIP3     4671     TIP3     OH2      OT      -0.834000       15.9994           0
     36322 TIP3     4671     TIP3     H1       HT       0.417000       1.00800           0
     36323 TIP3     4671     TIP3     H2       HT       0.417000       1.00800           0
     36324 TIP3     4672     TIP3     OH2      OT      -0.834000       15.9994           0
     36325 TIP3     4672     TIP3     H1       HT       0.417000       1.00800           0
     36326 TIP3     4672     TIP3     H2       HT       0.417000       1.00800           0
     36327 TIP3     4673     TIP3     OH2      OT      -0.834000       15.9994           0
     36328 TIP3     4673     TIP3     H1       HT       0.417000       1.00800           0
     36329 TIP3     4673     TIP3     H2       HT       0.417000       1.00800           0
     36330 TIP3     4674     TIP3     OH2      OT      -0.834000       15.9994           0
     36331 TIP3     4674     TIP3     H1       HT       0.417000       1.00800           0
     36332 TIP3     4674     TIP3     H2       HT       0.417000       1.00800           0
     36333 TIP3     4675     TIP3     OH2      OT      -0.834000       15.9994           0
     36334 TIP3     4675     TIP3     H1       HT       0.417000       1.00800           0
     36335 TIP3     4675     TIP3     H2       HT       0.417000       1.00800           0
     36336 TIP3     4676     TIP3     OH2      OT      -0.834000       15.9994           0
     36337 TIP3     4676     TIP3     H1       HT       0.417000       1.00800           0
     36338 TIP3     4676     TIP3     H2       HT       0.417000       1.00800           0
     36339 TIP3     4677     TIP3     OH2      OT      -0.834000       15.9994           0
     36340 TIP3     4677     TIP3     H1       HT       0.417000       1.00800           0
     36341 TIP3     4677     TIP3     H2       HT       0.417000       1.00800           0
     36342 TIP3     4678     TIP3     OH2      OT      -0.834000       15.9994           0
     36343 TIP3     4678     TIP3     H1       HT       0.417000       1.00800           0
     36344 TIP3     4678     TIP3     H2       HT       0.417000       1.00800           0
     36345 TIP3     4679     TIP3     OH2      OT      -0.834000       15.9994           0
     36346 TIP3     4679     TIP3     H1       HT       0.417000       1.00800           0
     36347 TIP3     4679     TIP3     H2       HT       0.417000       1.00800           0
     36348 TIP3     4680     TIP3     OH2      OT      -0.834000       15.9994           0
     36349 TIP3     4680     TIP3     H1       HT       0.417000       1.00800           0
     36350 TIP3     4680     TIP3     H2       HT       0.417000       1.00800           0
     36351 TIP3     4681     TIP3     OH2      OT      -0.834000       15.9994           0
     36352 TIP3     4681     TIP3     H1       HT       0.417000       1.00800           0
     36353 TIP3     4681     TIP3     H2       HT       0.417000       1.00800           0
     36354 TIP3     4682     TIP3     OH2      OT      -0.834000       15.9994           0
     36355 TIP3     4682     TIP3     H1       HT       0.417000       1.00800           0
     36356 TIP3     4682     TIP3     H2       HT       0.417000       1.00800           0
     36357 TIP3     4683     TIP3     OH2      OT      -0.834000       15.9994           0
     36358 TIP3     4683     TIP3     H1       HT       0.417000       1.00800           0
     36359 TIP3     4683     TIP3     H2       HT       0.417000       1.00800           0
     36360 TIP3     4684     TIP3     OH2      OT      -0.834000       15.9994           0
     36361 TIP3     4684     TIP3     H1       HT       0.417000       1.00800           0
     36362 TIP3     4684     TIP3     H2       HT       0.417000       1.00800           0
     36363 TIP3     4685     TIP3     OH2      OT      -0.834000       15.9994           0
     36364 TIP3     4685     TIP3     H1       HT       0.417000       1.00800           0
     36365 TIP3     4685     TIP3     H2       HT       0.417000       1.00800           0
     36366 TIP3     4686     TIP3     OH2      OT      -0.834000       15.9994           0
     36367 TIP3     4686     TIP3     H1       HT       0.417000       1.00800           0
     36368 TIP3     4686     TIP3     H2       HT       0.417000       1.00800           0
     36369 TIP3     4687     TIP3     OH2      OT      -0.834000       15.9994           0
     36370 TIP3     4687     TIP3     H1       HT       0.417000       1.00800           0
     36371 TIP3     4687     TIP3     H2       HT       0.417000       1.00800           0
     36372 TIP3     4688     TIP3     OH2      OT      -0.834000       15.9994           0
     36373 TIP3     4688     TIP3     H1       HT       0.417000       1.00800           0
     36374 TIP3     4688     TIP3     H2       HT       0.417000       1.00800           0
     36375 TIP3     4689     TIP3     OH2      OT      -0.834000       15.9994           0
     36376 TIP3     4689     TIP3     H1       HT       0.417000       1.00800           0
     36377 TIP3     4689     TIP3     H2       HT       0.417000       1.00800           0
     36378 TIP3     4690     TIP3     OH2      OT      -0.834000       15.9994           0
     36379 TIP3     4690     TIP3     H1       HT       0.417000       1.00800           0
     36380 TIP3     4690     TIP3     H2       HT       0.417000       1.00800           0
     36381 TIP3     4691     TIP3     OH2      OT      -0.834000       15.9994           0
     36382 TIP3     4691     TIP3     H1       HT       0.417000       1.00800           0
     36383 TIP3     4691     TIP3     H2       HT       0.417000       1.00800           0
     36384 TIP3     4692     TIP3     OH2      OT      -0.834000       15.9994           0
     36385 TIP3     4692     TIP3     H1       HT       0.417000       1.00800           0
     36386 TIP3     4692     TIP3     H2       HT       0.417000       1.00800           0
     36387 TIP3     4693     TIP3     OH2      OT      -0.834000       15.9994           0
     36388 TIP3     4693     TIP3     H1       HT       0.417000       1.00800           0
     36389 TIP3     4693     TIP3     H2       HT       0.417000       1.00800           0
     36390 TIP3     4694     TIP3     OH2      OT      -0.834000       15.9994           0
     36391 TIP3     4694     TIP3     H1       HT       0.417000       1.00800           0
     36392 TIP3     4694     TIP3     H2       HT       0.417000       1.00800           0
     36393 TIP3     4695     TIP3     OH2      OT      -0.834000       15.9994           0
     36394 TIP3     4695     TIP3     H1       HT       0.417000       1.00800           0
     36395 TIP3     4695     TIP3     H2       HT       0.417000       1.00800           0
     36396 TIP3     4696     TIP3     OH2      OT      -0.834000       15.9994           0
     36397 TIP3     4696     TIP3     H1       HT       0.417000       1.00800           0
     36398 TIP3     4696     TIP3     H2       HT       0.417000       1.00800           0
     36399 TIP3     4697     TIP3     OH2      OT      -0.834000       15.9994           0
     36400 TIP3     4697     TIP3     H1       HT       0.417000       1.00800           0
     36401 TIP3     4697     TIP3     H2       HT       0.417000       1.00800           0
     36402 TIP3     4698     TIP3     OH2      OT      -0.834000       15.9994           0
     36403 TIP3     4698     TIP3     H1       HT       0.417000       1.00800           0
     36404 TIP3     4698     TIP3     H2       HT       0.417000       1.00800           0
     36405 TIP3     4699     TIP3     OH2      OT      -0.834000       15.9994           0
     36406 TIP3     4699     TIP3     H1       HT       0.417000       1.00800           0
     36407 TIP3     4699     TIP3     H2       HT       0.417000       1.00800           0
     36408 TIP3     4700     TIP3     OH2      OT      -0.834000       15.9994           0
     36409 TIP3     4700     TIP3     H1       HT       0.417000       1.00800           0
     36410 TIP3     4700     TIP3     H2       HT       0.417000       1.00800           0
     36411 TIP3     4701     TIP3     OH2      OT      -0.834000       15.9994           0
     36412 TIP3     4701     TIP3     H1       HT       0.417000       1.00800           0
     36413 TIP3     4701     TIP3     H2       HT       0.417000       1.00800           0
     36414 TIP3     4702     TIP3     OH2      OT      -0.834000       15.9994           0
     36415 TIP3     4702     TIP3     H1       HT       0.417000       1.00800           0
     36416 TIP3     4702     TIP3     H2       HT       0.417000       1.00800           0
     36417 TIP3     4703     TIP3     OH2      OT      -0.834000       15.9994           0
     36418 TIP3     4703     TIP3     H1       HT       0.417000       1.00800           0
     36419 TIP3     4703     TIP3     H2       HT       0.417000       1.00800           0
     36420 TIP3     4704     TIP3     OH2      OT      -0.834000       15.9994           0
     36421 TIP3     4704     TIP3     H1       HT       0.417000       1.00800           0
     36422 TIP3     4704     TIP3     H2       HT       0.417000       1.00800           0
     36423 TIP3     4705     TIP3     OH2      OT      -0.834000       15.9994           0
     36424 TIP3     4705     TIP3     H1       HT       0.417000       1.00800           0
     36425 TIP3     4705     TIP3     H2       HT       0.417000       1.00800           0
     36426 TIP3     4706     TIP3     OH2      OT      -0.834000       15.9994           0
     36427 TIP3     4706     TIP3     H1       HT       0.417000       1.00800           0
     36428 TIP3     4706     TIP3     H2       HT       0.417000       1.00800           0
     36429 TIP3     4707     TIP3     OH2      OT      -0.834000       15.9994           0
     36430 TIP3     4707     TIP3     H1       HT       0.417000       1.00800           0
     36431 TIP3     4707     TIP3     H2       HT       0.417000       1.00800           0
     36432 TIP3     4708     TIP3     OH2      OT      -0.834000       15.9994           0
     36433 TIP3     4708     TIP3     H1       HT       0.417000       1.00800           0
     36434 TIP3     4708     TIP3     H2       HT       0.417000       1.00800           0
     36435 TIP3     4709     TIP3     OH2      OT      -0.834000       15.9994           0
     36436 TIP3     4709     TIP3     H1       HT       0.417000       1.00800           0
     36437 TIP3     4709     TIP3     H2       HT       0.417000       1.00800           0
     36438 TIP3     4710     TIP3     OH2      OT      -0.834000       15.9994           0
     36439 TIP3     4710     TIP3     H1       HT       0.417000       1.00800           0
     36440 TIP3     4710     TIP3     H2       HT       0.417000       1.00800           0
     36441 TIP3     4711     TIP3     OH2      OT      -0.834000       15.9994           0
     36442 TIP3     4711     TIP3     H1       HT       0.417000       1.00800           0
     36443 TIP3     4711     TIP3     H2       HT       0.417000       1.00800           0
     36444 TIP3     4712     TIP3     OH2      OT      -0.834000       15.9994           0
     36445 TIP3     4712     TIP3     H1       HT       0.417000       1.00800           0
     36446 TIP3     4712     TIP3     H2       HT       0.417000       1.00800           0
     36447 TIP3     4713     TIP3     OH2      OT      -0.834000       15.9994           0
     36448 TIP3     4713     TIP3     H1       HT       0.417000       1.00800           0
     36449 TIP3     4713     TIP3     H2       HT       0.417000       1.00800           0
     36450 TIP3     4714     TIP3     OH2      OT      -0.834000       15.9994           0
     36451 TIP3     4714     TIP3     H1       HT       0.417000       1.00800           0
     36452 TIP3     4714     TIP3     H2       HT       0.417000       1.00800           0
     36453 TIP3     4715     TIP3     OH2      OT      -0.834000       15.9994           0
     36454 TIP3     4715     TIP3     H1       HT       0.417000       1.00800           0
     36455 TIP3     4715     TIP3     H2       HT       0.417000       1.00800           0
     36456 TIP3     4716     TIP3     OH2      OT      -0.834000       15.9994           0
     36457 TIP3     4716     TIP3     H1       HT       0.417000       1.00800           0
     36458 TIP3     4716     TIP3     H2       HT       0.417000       1.00800           0
     36459 TIP3     4717     TIP3     OH2      OT      -0.834000       15.9994           0
     36460 TIP3     4717     TIP3     H1       HT       0.417000       1.00800           0
     36461 TIP3     4717     TIP3     H2       HT       0.417000       1.00800           0
     36462 TIP3     4718     TIP3     OH2      OT      -0.834000       15.9994           0
     36463 TIP3     4718     TIP3     H1       HT       0.417000       1.00800           0
     36464 TIP3     4718     TIP3     H2       HT       0.417000       1.00800           0
     36465 TIP3     4719     TIP3     OH2      OT      -0.834000       15.9994           0
     36466 TIP3     4719     TIP3     H1       HT       0.417000       1.00800           0
     36467 TIP3     4719     TIP3     H2       HT       0.417000       1.00800           0
     36468 TIP3     4720     TIP3     OH2      OT      -0.834000       15.9994           0
     36469 TIP3     4720     TIP3     H1       HT       0.417000       1.00800           0
     36470 TIP3     4720     TIP3     H2       HT       0.417000       1.00800           0
     36471 TIP3     4721     TIP3     OH2      OT      -0.834000       15.9994           0
     36472 TIP3     4721     TIP3     H1       HT       0.417000       1.00800           0
     36473 TIP3     4721     TIP3     H2       HT       0.417000       1.00800           0
     36474 TIP3     4722     TIP3     OH2      OT      -0.834000       15.9994           0
     36475 TIP3     4722     TIP3     H1       HT       0.417000       1.00800           0
     36476 TIP3     4722     TIP3     H2       HT       0.417000       1.00800           0
     36477 TIP3     4723     TIP3     OH2      OT      -0.834000       15.9994           0
     36478 TIP3     4723     TIP3     H1       HT       0.417000       1.00800           0
     36479 TIP3     4723     TIP3     H2       HT       0.417000       1.00800           0
     36480 TIP3     4724     TIP3     OH2      OT      -0.834000       15.9994           0
     36481 TIP3     4724     TIP3     H1       HT       0.417000       1.00800           0
     36482 TIP3     4724     TIP3     H2       HT       0.417000       1.00800           0
     36483 TIP3     4725     TIP3     OH2      OT      -0.834000       15.9994           0
     36484 TIP3     4725     TIP3     H1       HT       0.417000       1.00800           0
     36485 TIP3     4725     TIP3     H2       HT       0.417000       1.00800           0
     36486 TIP3     4726     TIP3     OH2      OT      -0.834000       15.9994           0
     36487 TIP3     4726     TIP3     H1       HT       0.417000       1.00800           0
     36488 TIP3     4726     TIP3     H2       HT       0.417000       1.00800           0
     36489 TIP3     4727     TIP3     OH2      OT      -0.834000       15.9994           0
     36490 TIP3     4727     TIP3     H1       HT       0.417000       1.00800           0
     36491 TIP3     4727     TIP3     H2       HT       0.417000       1.00800           0
     36492 TIP3     4728     TIP3     OH2      OT      -0.834000       15.9994           0
     36493 TIP3     4728     TIP3     H1       HT       0.417000       1.00800           0
     36494 TIP3     4728     TIP3     H2       HT       0.417000       1.00800           0
     36495 TIP3     4729     TIP3     OH2      OT      -0.834000       15.9994           0
     36496 TIP3     4729     TIP3     H1       HT       0.417000       1.00800           0
     36497 TIP3     4729     TIP3     H2       HT       0.417000       1.00800           0
     36498 TIP3     4730     TIP3     OH2      OT      -0.834000       15.9994           0
     36499 TIP3     4730     TIP3     H1       HT       0.417000       1.00800           0
     36500 TIP3     4730     TIP3     H2       HT       0.417000       1.00800           0
     36501 TIP3     4731     TIP3     OH2      OT      -0.834000       15.9994           0
     36502 TIP3     4731     TIP3     H1       HT       0.417000       1.00800           0
     36503 TIP3     4731     TIP3     H2       HT       0.417000       1.00800           0
     36504 TIP3     4732     TIP3     OH2      OT      -0.834000       15.9994           0
     36505 TIP3     4732     TIP3     H1       HT       0.417000       1.00800           0
     36506 TIP3     4732     TIP3     H2       HT       0.417000       1.00800           0
     36507 TIP3     4733     TIP3     OH2      OT      -0.834000       15.9994           0
     36508 TIP3     4733     TIP3     H1       HT       0.417000       1.00800           0
     36509 TIP3     4733     TIP3     H2       HT       0.417000       1.00800           0
     36510 TIP3     4734     TIP3     OH2      OT      -0.834000       15.9994           0
     36511 TIP3     4734     TIP3     H1       HT       0.417000       1.00800           0
     36512 TIP3     4734     TIP3     H2       HT       0.417000       1.00800           0
     36513 TIP3     4735     TIP3     OH2      OT      -0.834000       15.9994           0
     36514 TIP3     4735     TIP3     H1       HT       0.417000       1.00800           0
     36515 TIP3     4735     TIP3     H2       HT       0.417000       1.00800           0
     36516 TIP3     4736     TIP3     OH2      OT      -0.834000       15.9994           0
     36517 TIP3     4736     TIP3     H1       HT       0.417000       1.00800           0
     36518 TIP3     4736     TIP3     H2       HT       0.417000       1.00800           0
     36519 TIP3     4737     TIP3     OH2      OT      -0.834000       15.9994           0
     36520 TIP3     4737     TIP3     H1       HT       0.417000       1.00800           0
     36521 TIP3     4737     TIP3     H2       HT       0.417000       1.00800           0
     36522 TIP3     4738     TIP3     OH2      OT      -0.834000       15.9994           0
     36523 TIP3     4738     TIP3     H1       HT       0.417000       1.00800           0
     36524 TIP3     4738     TIP3     H2       HT       0.417000       1.00800           0
     36525 TIP3     4739     TIP3     OH2      OT      -0.834000       15.9994           0
     36526 TIP3     4739     TIP3     H1       HT       0.417000       1.00800           0
     36527 TIP3     4739     TIP3     H2       HT       0.417000       1.00800           0
     36528 TIP3     4740     TIP3     OH2      OT      -0.834000       15.9994           0
     36529 TIP3     4740     TIP3     H1       HT       0.417000       1.00800           0
     36530 TIP3     4740     TIP3     H2       HT       0.417000       1.00800           0
     36531 TIP3     4741     TIP3     OH2      OT      -0.834000       15.9994           0
     36532 TIP3     4741     TIP3     H1       HT       0.417000       1.00800           0
     36533 TIP3     4741     TIP3     H2       HT       0.417000       1.00800           0
     36534 TIP3     4742     TIP3     OH2      OT      -0.834000       15.9994           0
     36535 TIP3     4742     TIP3     H1       HT       0.417000       1.00800           0
     36536 TIP3     4742     TIP3     H2       HT       0.417000       1.00800           0
     36537 TIP3     4743     TIP3     OH2      OT      -0.834000       15.9994           0
     36538 TIP3     4743     TIP3     H1       HT       0.417000       1.00800           0
     36539 TIP3     4743     TIP3     H2       HT       0.417000       1.00800           0
     36540 TIP3     4744     TIP3     OH2      OT      -0.834000       15.9994           0
     36541 TIP3     4744     TIP3     H1       HT       0.417000       1.00800           0
     36542 TIP3     4744     TIP3     H2       HT       0.417000       1.00800           0
     36543 TIP3     4745     TIP3     OH2      OT      -0.834000       15.9994           0
     36544 TIP3     4745     TIP3     H1       HT       0.417000       1.00800           0
     36545 TIP3     4745     TIP3     H2       HT       0.417000       1.00800           0
     36546 TIP3     4746     TIP3     OH2      OT      -0.834000       15.9994           0
     36547 TIP3     4746     TIP3     H1       HT       0.417000       1.00800           0
     36548 TIP3     4746     TIP3     H2       HT       0.417000       1.00800           0
     36549 TIP3     4747     TIP3     OH2      OT      -0.834000       15.9994           0
     36550 TIP3     4747     TIP3     H1       HT       0.417000       1.00800           0
     36551 TIP3     4747     TIP3     H2       HT       0.417000       1.00800           0
     36552 TIP3     4748     TIP3     OH2      OT      -0.834000       15.9994           0
     36553 TIP3     4748     TIP3     H1       HT       0.417000       1.00800           0
     36554 TIP3     4748     TIP3     H2       HT       0.417000       1.00800           0
     36555 TIP3     4749     TIP3     OH2      OT      -0.834000       15.9994           0
     36556 TIP3     4749     TIP3     H1       HT       0.417000       1.00800           0
     36557 TIP3     4749     TIP3     H2       HT       0.417000       1.00800           0
     36558 TIP3     4750     TIP3     OH2      OT      -0.834000       15.9994           0
     36559 TIP3     4750     TIP3     H1       HT       0.417000       1.00800           0
     36560 TIP3     4750     TIP3     H2       HT       0.417000       1.00800           0
     36561 TIP3     4751     TIP3     OH2      OT      -0.834000       15.9994           0
     36562 TIP3     4751     TIP3     H1       HT       0.417000       1.00800           0
     36563 TIP3     4751     TIP3     H2       HT       0.417000       1.00800           0
     36564 TIP3     4752     TIP3     OH2      OT      -0.834000       15.9994           0
     36565 TIP3     4752     TIP3     H1       HT       0.417000       1.00800           0
     36566 TIP3     4752     TIP3     H2       HT       0.417000       1.00800           0
     36567 TIP3     4753     TIP3     OH2      OT      -0.834000       15.9994           0
     36568 TIP3     4753     TIP3     H1       HT       0.417000       1.00800           0
     36569 TIP3     4753     TIP3     H2       HT       0.417000       1.00800           0
     36570 TIP3     4754     TIP3     OH2      OT      -0.834000       15.9994           0
     36571 TIP3     4754     TIP3     H1       HT       0.417000       1.00800           0
     36572 TIP3     4754     TIP3     H2       HT       0.417000       1.00800           0
     36573 TIP3     4755     TIP3     OH2      OT      -0.834000       15.9994           0
     36574 TIP3     4755     TIP3     H1       HT       0.417000       1.00800           0
     36575 TIP3     4755     TIP3     H2       HT       0.417000       1.00800           0
     36576 TIP3     4756     TIP3     OH2      OT      -0.834000       15.9994           0
     36577 TIP3     4756     TIP3     H1       HT       0.417000       1.00800           0
     36578 TIP3     4756     TIP3     H2       HT       0.417000       1.00800           0
     36579 TIP3     4757     TIP3     OH2      OT      -0.834000       15.9994           0
     36580 TIP3     4757     TIP3     H1       HT       0.417000       1.00800           0
     36581 TIP3     4757     TIP3     H2       HT       0.417000       1.00800           0
     36582 TIP3     4758     TIP3     OH2      OT      -0.834000       15.9994           0
     36583 TIP3     4758     TIP3     H1       HT       0.417000       1.00800           0
     36584 TIP3     4758     TIP3     H2       HT       0.417000       1.00800           0
     36585 TIP3     4759     TIP3     OH2      OT      -0.834000       15.9994           0
     36586 TIP3     4759     TIP3     H1       HT       0.417000       1.00800           0
     36587 TIP3     4759     TIP3     H2       HT       0.417000       1.00800           0
     36588 TIP3     4760     TIP3     OH2      OT      -0.834000       15.9994           0
     36589 TIP3     4760     TIP3     H1       HT       0.417000       1.00800           0
     36590 TIP3     4760     TIP3     H2       HT       0.417000       1.00800           0
     36591 TIP3     4761     TIP3     OH2      OT      -0.834000       15.9994           0
     36592 TIP3     4761     TIP3     H1       HT       0.417000       1.00800           0
     36593 TIP3     4761     TIP3     H2       HT       0.417000       1.00800           0
     36594 TIP3     4762     TIP3     OH2      OT      -0.834000       15.9994           0
     36595 TIP3     4762     TIP3     H1       HT       0.417000       1.00800           0
     36596 TIP3     4762     TIP3     H2       HT       0.417000       1.00800           0
     36597 TIP3     4763     TIP3     OH2      OT      -0.834000       15.9994           0
     36598 TIP3     4763     TIP3     H1       HT       0.417000       1.00800           0
     36599 TIP3     4763     TIP3     H2       HT       0.417000       1.00800           0
     36600 TIP3     4764     TIP3     OH2      OT      -0.834000       15.9994           0
     36601 TIP3     4764     TIP3     H1       HT       0.417000       1.00800           0
     36602 TIP3     4764     TIP3     H2       HT       0.417000       1.00800           0
     36603 TIP3     4765     TIP3     OH2      OT      -0.834000       15.9994           0
     36604 TIP3     4765     TIP3     H1       HT       0.417000       1.00800           0
     36605 TIP3     4765     TIP3     H2       HT       0.417000       1.00800           0
     36606 TIP3     4766     TIP3     OH2      OT      -0.834000       15.9994           0
     36607 TIP3     4766     TIP3     H1       HT       0.417000       1.00800           0
     36608 TIP3     4766     TIP3     H2       HT       0.417000       1.00800           0
     36609 TIP3     4767     TIP3     OH2      OT      -0.834000       15.9994           0
     36610 TIP3     4767     TIP3     H1       HT       0.417000       1.00800           0
     36611 TIP3     4767     TIP3     H2       HT       0.417000       1.00800           0
     36612 TIP3     4768     TIP3     OH2      OT      -0.834000       15.9994           0
     36613 TIP3     4768     TIP3     H1       HT       0.417000       1.00800           0
     36614 TIP3     4768     TIP3     H2       HT       0.417000       1.00800           0
     36615 TIP3     4769     TIP3     OH2      OT      -0.834000       15.9994           0
     36616 TIP3     4769     TIP3     H1       HT       0.417000       1.00800           0
     36617 TIP3     4769     TIP3     H2       HT       0.417000       1.00800           0
     36618 TIP3     4770     TIP3     OH2      OT      -0.834000       15.9994           0
     36619 TIP3     4770     TIP3     H1       HT       0.417000       1.00800           0
     36620 TIP3     4770     TIP3     H2       HT       0.417000       1.00800           0
     36621 TIP3     4771     TIP3     OH2      OT      -0.834000       15.9994           0
     36622 TIP3     4771     TIP3     H1       HT       0.417000       1.00800           0
     36623 TIP3     4771     TIP3     H2       HT       0.417000       1.00800           0
     36624 TIP3     4772     TIP3     OH2      OT      -0.834000       15.9994           0
     36625 TIP3     4772     TIP3     H1       HT       0.417000       1.00800           0
     36626 TIP3     4772     TIP3     H2       HT       0.417000       1.00800           0
     36627 TIP3     4773     TIP3     OH2      OT      -0.834000       15.9994           0
     36628 TIP3     4773     TIP3     H1       HT       0.417000       1.00800           0
     36629 TIP3     4773     TIP3     H2       HT       0.417000       1.00800           0
     36630 TIP3     4774     TIP3     OH2      OT      -0.834000       15.9994           0
     36631 TIP3     4774     TIP3     H1       HT       0.417000       1.00800           0
     36632 TIP3     4774     TIP3     H2       HT       0.417000       1.00800           0
     36633 TIP3     4775     TIP3     OH2      OT      -0.834000       15.9994           0
     36634 TIP3     4775     TIP3     H1       HT       0.417000       1.00800           0
     36635 TIP3     4775     TIP3     H2       HT       0.417000       1.00800           0
     36636 TIP3     4776     TIP3     OH2      OT      -0.834000       15.9994           0
     36637 TIP3     4776     TIP3     H1       HT       0.417000       1.00800           0
     36638 TIP3     4776     TIP3     H2       HT       0.417000       1.00800           0
     36639 TIP3     4777     TIP3     OH2      OT      -0.834000       15.9994           0
     36640 TIP3     4777     TIP3     H1       HT       0.417000       1.00800           0
     36641 TIP3     4777     TIP3     H2       HT       0.417000       1.00800           0
     36642 TIP3     4778     TIP3     OH2      OT      -0.834000       15.9994           0
     36643 TIP3     4778     TIP3     H1       HT       0.417000       1.00800           0
     36644 TIP3     4778     TIP3     H2       HT       0.417000       1.00800           0
     36645 TIP3     4779     TIP3     OH2      OT      -0.834000       15.9994           0
     36646 TIP3     4779     TIP3     H1       HT       0.417000       1.00800           0
     36647 TIP3     4779     TIP3     H2       HT       0.417000       1.00800           0
     36648 TIP3     4780     TIP3     OH2      OT      -0.834000       15.9994           0
     36649 TIP3     4780     TIP3     H1       HT       0.417000       1.00800           0
     36650 TIP3     4780     TIP3     H2       HT       0.417000       1.00800           0
     36651 TIP3     4781     TIP3     OH2      OT      -0.834000       15.9994           0
     36652 TIP3     4781     TIP3     H1       HT       0.417000       1.00800           0
     36653 TIP3     4781     TIP3     H2       HT       0.417000       1.00800           0
     36654 TIP3     4782     TIP3     OH2      OT      -0.834000       15.9994           0
     36655 TIP3     4782     TIP3     H1       HT       0.417000       1.00800           0
     36656 TIP3     4782     TIP3     H2       HT       0.417000       1.00800           0
     36657 TIP3     4783     TIP3     OH2      OT      -0.834000       15.9994           0
     36658 TIP3     4783     TIP3     H1       HT       0.417000       1.00800           0
     36659 TIP3     4783     TIP3     H2       HT       0.417000       1.00800           0
     36660 TIP3     4784     TIP3     OH2      OT      -0.834000       15.9994           0
     36661 TIP3     4784     TIP3     H1       HT       0.417000       1.00800           0
     36662 TIP3     4784     TIP3     H2       HT       0.417000       1.00800           0
     36663 TIP3     4785     TIP3     OH2      OT      -0.834000       15.9994           0
     36664 TIP3     4785     TIP3     H1       HT       0.417000       1.00800           0
     36665 TIP3     4785     TIP3     H2       HT       0.417000       1.00800           0
     36666 TIP3     4786     TIP3     OH2      OT      -0.834000       15.9994           0
     36667 TIP3     4786     TIP3     H1       HT       0.417000       1.00800           0
     36668 TIP3     4786     TIP3     H2       HT       0.417000       1.00800           0
     36669 TIP3     4787     TIP3     OH2      OT      -0.834000       15.9994           0
     36670 TIP3     4787     TIP3     H1       HT       0.417000       1.00800           0
     36671 TIP3     4787     TIP3     H2       HT       0.417000       1.00800           0
     36672 TIP3     4788     TIP3     OH2      OT      -0.834000       15.9994           0
     36673 TIP3     4788     TIP3     H1       HT       0.417000       1.00800           0
     36674 TIP3     4788     TIP3     H2       HT       0.417000       1.00800           0
     36675 TIP3     4789     TIP3     OH2      OT      -0.834000       15.9994           0
     36676 TIP3     4789     TIP3     H1       HT       0.417000       1.00800           0
     36677 TIP3     4789     TIP3     H2       HT       0.417000       1.00800           0
     36678 TIP3     4790     TIP3     OH2      OT      -0.834000       15.9994           0
     36679 TIP3     4790     TIP3     H1       HT       0.417000       1.00800           0
     36680 TIP3     4790     TIP3     H2       HT       0.417000       1.00800           0
     36681 TIP3     4791     TIP3     OH2      OT      -0.834000       15.9994           0
     36682 TIP3     4791     TIP3     H1       HT       0.417000       1.00800           0
     36683 TIP3     4791     TIP3     H2       HT       0.417000       1.00800           0
     36684 TIP3     4792     TIP3     OH2      OT      -0.834000       15.9994           0
     36685 TIP3     4792     TIP3     H1       HT       0.417000       1.00800           0
     36686 TIP3     4792     TIP3     H2       HT       0.417000       1.00800           0
     36687 TIP3     4793     TIP3     OH2      OT      -0.834000       15.9994           0
     36688 TIP3     4793     TIP3     H1       HT       0.417000       1.00800           0
     36689 TIP3     4793     TIP3     H2       HT       0.417000       1.00800           0
     36690 TIP3     4794     TIP3     OH2      OT      -0.834000       15.9994           0
     36691 TIP3     4794     TIP3     H1       HT       0.417000       1.00800           0
     36692 TIP3     4794     TIP3     H2       HT       0.417000       1.00800           0
     36693 TIP3     4795     TIP3     OH2      OT      -0.834000       15.9994           0
     36694 TIP3     4795     TIP3     H1       HT       0.417000       1.00800           0
     36695 TIP3     4795     TIP3     H2       HT       0.417000       1.00800           0
     36696 TIP3     4796     TIP3     OH2      OT      -0.834000       15.9994           0
     36697 TIP3     4796     TIP3     H1       HT       0.417000       1.00800           0
     36698 TIP3     4796     TIP3     H2       HT       0.417000       1.00800           0
     36699 TIP3     4797     TIP3     OH2      OT      -0.834000       15.9994           0
     36700 TIP3     4797     TIP3     H1       HT       0.417000       1.00800           0
     36701 TIP3     4797     TIP3     H2       HT       0.417000       1.00800           0
     36702 TIP3     4798     TIP3     OH2      OT      -0.834000       15.9994           0
     36703 TIP3     4798     TIP3     H1       HT       0.417000       1.00800           0
     36704 TIP3     4798     TIP3     H2       HT       0.417000       1.00800           0
     36705 TIP3     4799     TIP3     OH2      OT      -0.834000       15.9994           0
     36706 TIP3     4799     TIP3     H1       HT       0.417000       1.00800           0
     36707 TIP3     4799     TIP3     H2       HT       0.417000       1.00800           0
     36708 TIP3     4800     TIP3     OH2      OT      -0.834000       15.9994           0
     36709 TIP3     4800     TIP3     H1       HT       0.417000       1.00800           0
     36710 TIP3     4800     TIP3     H2       HT       0.417000       1.00800           0
     36711 TIP3     4801     TIP3     OH2      OT      -0.834000       15.9994           0
     36712 TIP3     4801     TIP3     H1       HT       0.417000       1.00800           0
     36713 TIP3     4801     TIP3     H2       HT       0.417000       1.00800           0
     36714 TIP3     4802     TIP3     OH2      OT      -0.834000       15.9994           0
     36715 TIP3     4802     TIP3     H1       HT       0.417000       1.00800           0
     36716 TIP3     4802     TIP3     H2       HT       0.417000       1.00800           0
     36717 TIP3     4803     TIP3     OH2      OT      -0.834000       15.9994           0
     36718 TIP3     4803     TIP3     H1       HT       0.417000       1.00800           0
     36719 TIP3     4803     TIP3     H2       HT       0.417000       1.00800           0
     36720 TIP3     4804     TIP3     OH2      OT      -0.834000       15.9994           0
     36721 TIP3     4804     TIP3     H1       HT       0.417000       1.00800           0
     36722 TIP3     4804     TIP3     H2       HT       0.417000       1.00800           0
     36723 TIP3     4805     TIP3     OH2      OT      -0.834000       15.9994           0
     36724 TIP3     4805     TIP3     H1       HT       0.417000       1.00800           0
     36725 TIP3     4805     TIP3     H2       HT       0.417000       1.00800           0
     36726 TIP3     4806     TIP3     OH2      OT      -0.834000       15.9994           0
     36727 TIP3     4806     TIP3     H1       HT       0.417000       1.00800           0
     36728 TIP3     4806     TIP3     H2       HT       0.417000       1.00800           0
     36729 TIP3     4807     TIP3     OH2      OT      -0.834000       15.9994           0
     36730 TIP3     4807     TIP3     H1       HT       0.417000       1.00800           0
     36731 TIP3     4807     TIP3     H2       HT       0.417000       1.00800           0
     36732 TIP3     4808     TIP3     OH2      OT      -0.834000       15.9994           0
     36733 TIP3     4808     TIP3     H1       HT       0.417000       1.00800           0
     36734 TIP3     4808     TIP3     H2       HT       0.417000       1.00800           0
     36735 TIP3     4809     TIP3     OH2      OT      -0.834000       15.9994           0
     36736 TIP3     4809     TIP3     H1       HT       0.417000       1.00800           0
     36737 TIP3     4809     TIP3     H2       HT       0.417000       1.00800           0
     36738 TIP3     4810     TIP3     OH2      OT      -0.834000       15.9994           0
     36739 TIP3     4810     TIP3     H1       HT       0.417000       1.00800           0
     36740 TIP3     4810     TIP3     H2       HT       0.417000       1.00800           0
     36741 TIP3     4811     TIP3     OH2      OT      -0.834000       15.9994           0
     36742 TIP3     4811     TIP3     H1       HT       0.417000       1.00800           0
     36743 TIP3     4811     TIP3     H2       HT       0.417000       1.00800           0
     36744 TIP3     4812     TIP3     OH2      OT      -0.834000       15.9994           0
     36745 TIP3     4812     TIP3     H1       HT       0.417000       1.00800           0
     36746 TIP3     4812     TIP3     H2       HT       0.417000       1.00800           0
     36747 TIP3     4813     TIP3     OH2      OT      -0.834000       15.9994           0
     36748 TIP3     4813     TIP3     H1       HT       0.417000       1.00800           0
     36749 TIP3     4813     TIP3     H2       HT       0.417000       1.00800           0
     36750 TIP3     4814     TIP3     OH2      OT      -0.834000       15.9994           0
     36751 TIP3     4814     TIP3     H1       HT       0.417000       1.00800           0
     36752 TIP3     4814     TIP3     H2       HT       0.417000       1.00800           0
     36753 TIP3     4815     TIP3     OH2      OT      -0.834000       15.9994           0
     36754 TIP3     4815     TIP3     H1       HT       0.417000       1.00800           0
     36755 TIP3     4815     TIP3     H2       HT       0.417000       1.00800           0
     36756 TIP3     4816     TIP3     OH2      OT      -0.834000       15.9994           0
     36757 TIP3     4816     TIP3     H1       HT       0.417000       1.00800           0
     36758 TIP3     4816     TIP3     H2       HT       0.417000       1.00800           0
     36759 TIP3     4817     TIP3     OH2      OT      -0.834000       15.9994           0
     36760 TIP3     4817     TIP3     H1       HT       0.417000       1.00800           0
     36761 TIP3     4817     TIP3     H2       HT       0.417000       1.00800           0
     36762 TIP3     4818     TIP3     OH2      OT      -0.834000       15.9994           0
     36763 TIP3     4818     TIP3     H1       HT       0.417000       1.00800           0
     36764 TIP3     4818     TIP3     H2       HT       0.417000       1.00800           0
     36765 TIP3     4819     TIP3     OH2      OT      -0.834000       15.9994           0
     36766 TIP3     4819     TIP3     H1       HT       0.417000       1.00800           0
     36767 TIP3     4819     TIP3     H2       HT       0.417000       1.00800           0
     36768 TIP3     4820     TIP3     OH2      OT      -0.834000       15.9994           0
     36769 TIP3     4820     TIP3     H1       HT       0.417000       1.00800           0
     36770 TIP3     4820     TIP3     H2       HT       0.417000       1.00800           0
     36771 TIP3     4821     TIP3     OH2      OT      -0.834000       15.9994           0
     36772 TIP3     4821     TIP3     H1       HT       0.417000       1.00800           0
     36773 TIP3     4821     TIP3     H2       HT       0.417000       1.00800           0
     36774 TIP3     4822     TIP3     OH2      OT      -0.834000       15.9994           0
     36775 TIP3     4822     TIP3     H1       HT       0.417000       1.00800           0
     36776 TIP3     4822     TIP3     H2       HT       0.417000       1.00800           0
     36777 TIP3     4823     TIP3     OH2      OT      -0.834000       15.9994           0
     36778 TIP3     4823     TIP3     H1       HT       0.417000       1.00800           0
     36779 TIP3     4823     TIP3     H2       HT       0.417000       1.00800           0
     36780 TIP3     4824     TIP3     OH2      OT      -0.834000       15.9994           0
     36781 TIP3     4824     TIP3     H1       HT       0.417000       1.00800           0
     36782 TIP3     4824     TIP3     H2       HT       0.417000       1.00800           0
     36783 TIP3     4825     TIP3     OH2      OT      -0.834000       15.9994           0
     36784 TIP3     4825     TIP3     H1       HT       0.417000       1.00800           0
     36785 TIP3     4825     TIP3     H2       HT       0.417000       1.00800           0
     36786 TIP3     4826     TIP3     OH2      OT      -0.834000       15.9994           0
     36787 TIP3     4826     TIP3     H1       HT       0.417000       1.00800           0
     36788 TIP3     4826     TIP3     H2       HT       0.417000       1.00800           0
     36789 TIP3     4827     TIP3     OH2      OT      -0.834000       15.9994           0
     36790 TIP3     4827     TIP3     H1       HT       0.417000       1.00800           0
     36791 TIP3     4827     TIP3     H2       HT       0.417000       1.00800           0
     36792 TIP3     4828     TIP3     OH2      OT      -0.834000       15.9994           0
     36793 TIP3     4828     TIP3     H1       HT       0.417000       1.00800           0
     36794 TIP3     4828     TIP3     H2       HT       0.417000       1.00800           0
     36795 TIP3     4829     TIP3     OH2      OT      -0.834000       15.9994           0
     36796 TIP3     4829     TIP3     H1       HT       0.417000       1.00800           0
     36797 TIP3     4829     TIP3     H2       HT       0.417000       1.00800           0
     36798 TIP3     4830     TIP3     OH2      OT      -0.834000       15.9994           0
     36799 TIP3     4830     TIP3     H1       HT       0.417000       1.00800           0
     36800 TIP3     4830     TIP3     H2       HT       0.417000       1.00800           0
     36801 TIP3     4831     TIP3     OH2      OT      -0.834000       15.9994           0
     36802 TIP3     4831     TIP3     H1       HT       0.417000       1.00800           0
     36803 TIP3     4831     TIP3     H2       HT       0.417000       1.00800           0
     36804 TIP3     4832     TIP3     OH2      OT      -0.834000       15.9994           0
     36805 TIP3     4832     TIP3     H1       HT       0.417000       1.00800           0
     36806 TIP3     4832     TIP3     H2       HT       0.417000       1.00800           0
     36807 TIP3     4833     TIP3     OH2      OT      -0.834000       15.9994           0
     36808 TIP3     4833     TIP3     H1       HT       0.417000       1.00800           0
     36809 TIP3     4833     TIP3     H2       HT       0.417000       1.00800           0
     36810 TIP3     4834     TIP3     OH2      OT      -0.834000       15.9994           0
     36811 TIP3     4834     TIP3     H1       HT       0.417000       1.00800           0
     36812 TIP3     4834     TIP3     H2       HT       0.417000       1.00800           0
     36813 TIP3     4835     TIP3     OH2      OT      -0.834000       15.9994           0
     36814 TIP3     4835     TIP3     H1       HT       0.417000       1.00800           0
     36815 TIP3     4835     TIP3     H2       HT       0.417000       1.00800           0
     36816 TIP3     4836     TIP3     OH2      OT      -0.834000       15.9994           0
     36817 TIP3     4836     TIP3     H1       HT       0.417000       1.00800           0
     36818 TIP3     4836     TIP3     H2       HT       0.417000       1.00800           0
     36819 TIP3     4837     TIP3     OH2      OT      -0.834000       15.9994           0
     36820 TIP3     4837     TIP3     H1       HT       0.417000       1.00800           0
     36821 TIP3     4837     TIP3     H2       HT       0.417000       1.00800           0
     36822 TIP3     4838     TIP3     OH2      OT      -0.834000       15.9994           0
     36823 TIP3     4838     TIP3     H1       HT       0.417000       1.00800           0
     36824 TIP3     4838     TIP3     H2       HT       0.417000       1.00800           0
     36825 TIP3     4839     TIP3     OH2      OT      -0.834000       15.9994           0
     36826 TIP3     4839     TIP3     H1       HT       0.417000       1.00800           0
     36827 TIP3     4839     TIP3     H2       HT       0.417000       1.00800           0
     36828 TIP3     4840     TIP3     OH2      OT      -0.834000       15.9994           0
     36829 TIP3     4840     TIP3     H1       HT       0.417000       1.00800           0
     36830 TIP3     4840     TIP3     H2       HT       0.417000       1.00800           0
     36831 TIP3     4841     TIP3     OH2      OT      -0.834000       15.9994           0
     36832 TIP3     4841     TIP3     H1       HT       0.417000       1.00800           0
     36833 TIP3     4841     TIP3     H2       HT       0.417000       1.00800           0
     36834 TIP3     4842     TIP3     OH2      OT      -0.834000       15.9994           0
     36835 TIP3     4842     TIP3     H1       HT       0.417000       1.00800           0
     36836 TIP3     4842     TIP3     H2       HT       0.417000       1.00800           0
     36837 TIP3     4843     TIP3     OH2      OT      -0.834000       15.9994           0
     36838 TIP3     4843     TIP3     H1       HT       0.417000       1.00800           0
     36839 TIP3     4843     TIP3     H2       HT       0.417000       1.00800           0
     36840 TIP3     4844     TIP3     OH2      OT      -0.834000       15.9994           0
     36841 TIP3     4844     TIP3     H1       HT       0.417000       1.00800           0
     36842 TIP3     4844     TIP3     H2       HT       0.417000       1.00800           0
     36843 TIP3     4845     TIP3     OH2      OT      -0.834000       15.9994           0
     36844 TIP3     4845     TIP3     H1       HT       0.417000       1.00800           0
     36845 TIP3     4845     TIP3     H2       HT       0.417000       1.00800           0
     36846 TIP3     4846     TIP3     OH2      OT      -0.834000       15.9994           0
     36847 TIP3     4846     TIP3     H1       HT       0.417000       1.00800           0
     36848 TIP3     4846     TIP3     H2       HT       0.417000       1.00800           0
     36849 TIP3     4847     TIP3     OH2      OT      -0.834000       15.9994           0
     36850 TIP3     4847     TIP3     H1       HT       0.417000       1.00800           0
     36851 TIP3     4847     TIP3     H2       HT       0.417000       1.00800           0
     36852 TIP3     4848     TIP3     OH2      OT      -0.834000       15.9994           0
     36853 TIP3     4848     TIP3     H1       HT       0.417000       1.00800           0
     36854 TIP3     4848     TIP3     H2       HT       0.417000       1.00800           0
     36855 TIP3     4849     TIP3     OH2      OT      -0.834000       15.9994           0
     36856 TIP3     4849     TIP3     H1       HT       0.417000       1.00800           0
     36857 TIP3     4849     TIP3     H2       HT       0.417000       1.00800           0
     36858 TIP3     4850     TIP3     OH2      OT      -0.834000       15.9994           0
     36859 TIP3     4850     TIP3     H1       HT       0.417000       1.00800           0
     36860 TIP3     4850     TIP3     H2       HT       0.417000       1.00800           0
     36861 TIP3     4851     TIP3     OH2      OT      -0.834000       15.9994           0
     36862 TIP3     4851     TIP3     H1       HT       0.417000       1.00800           0
     36863 TIP3     4851     TIP3     H2       HT       0.417000       1.00800           0
     36864 TIP3     4852     TIP3     OH2      OT      -0.834000       15.9994           0
     36865 TIP3     4852     TIP3     H1       HT       0.417000       1.00800           0
     36866 TIP3     4852     TIP3     H2       HT       0.417000       1.00800           0
     36867 TIP3     4853     TIP3     OH2      OT      -0.834000       15.9994           0
     36868 TIP3     4853     TIP3     H1       HT       0.417000       1.00800           0
     36869 TIP3     4853     TIP3     H2       HT       0.417000       1.00800           0
     36870 TIP3     4854     TIP3     OH2      OT      -0.834000       15.9994           0
     36871 TIP3     4854     TIP3     H1       HT       0.417000       1.00800           0
     36872 TIP3     4854     TIP3     H2       HT       0.417000       1.00800           0
     36873 TIP3     4855     TIP3     OH2      OT      -0.834000       15.9994           0
     36874 TIP3     4855     TIP3     H1       HT       0.417000       1.00800           0
     36875 TIP3     4855     TIP3     H2       HT       0.417000       1.00800           0
     36876 TIP3     4856     TIP3     OH2      OT      -0.834000       15.9994           0
     36877 TIP3     4856     TIP3     H1       HT       0.417000       1.00800           0
     36878 TIP3     4856     TIP3     H2       HT       0.417000       1.00800           0
     36879 TIP3     4857     TIP3     OH2      OT      -0.834000       15.9994           0
     36880 TIP3     4857     TIP3     H1       HT       0.417000       1.00800           0
     36881 TIP3     4857     TIP3     H2       HT       0.417000       1.00800           0
     36882 TIP3     4858     TIP3     OH2      OT      -0.834000       15.9994           0
     36883 TIP3     4858     TIP3     H1       HT       0.417000       1.00800           0
     36884 TIP3     4858     TIP3     H2       HT       0.417000       1.00800           0
     36885 TIP3     4859     TIP3     OH2      OT      -0.834000       15.9994           0
     36886 TIP3     4859     TIP3     H1       HT       0.417000       1.00800           0
     36887 TIP3     4859     TIP3     H2       HT       0.417000       1.00800           0
     36888 TIP3     4860     TIP3     OH2      OT      -0.834000       15.9994           0
     36889 TIP3     4860     TIP3     H1       HT       0.417000       1.00800           0
     36890 TIP3     4860     TIP3     H2       HT       0.417000       1.00800           0
     36891 TIP3     4861     TIP3     OH2      OT      -0.834000       15.9994           0
     36892 TIP3     4861     TIP3     H1       HT       0.417000       1.00800           0
     36893 TIP3     4861     TIP3     H2       HT       0.417000       1.00800           0
     36894 TIP3     4862     TIP3     OH2      OT      -0.834000       15.9994           0
     36895 TIP3     4862     TIP3     H1       HT       0.417000       1.00800           0
     36896 TIP3     4862     TIP3     H2       HT       0.417000       1.00800           0
     36897 TIP3     4863     TIP3     OH2      OT      -0.834000       15.9994           0
     36898 TIP3     4863     TIP3     H1       HT       0.417000       1.00800           0
     36899 TIP3     4863     TIP3     H2       HT       0.417000       1.00800           0
     36900 TIP3     4864     TIP3     OH2      OT      -0.834000       15.9994           0
     36901 TIP3     4864     TIP3     H1       HT       0.417000       1.00800           0
     36902 TIP3     4864     TIP3     H2       HT       0.417000       1.00800           0
     36903 TIP3     4865     TIP3     OH2      OT      -0.834000       15.9994           0
     36904 TIP3     4865     TIP3     H1       HT       0.417000       1.00800           0
     36905 TIP3     4865     TIP3     H2       HT       0.417000       1.00800           0
     36906 TIP3     4866     TIP3     OH2      OT      -0.834000       15.9994           0
     36907 TIP3     4866     TIP3     H1       HT       0.417000       1.00800           0
     36908 TIP3     4866     TIP3     H2       HT       0.417000       1.00800           0
     36909 TIP3     4867     TIP3     OH2      OT      -0.834000       15.9994           0
     36910 TIP3     4867     TIP3     H1       HT       0.417000       1.00800           0
     36911 TIP3     4867     TIP3     H2       HT       0.417000       1.00800           0
     36912 TIP3     4868     TIP3     OH2      OT      -0.834000       15.9994           0
     36913 TIP3     4868     TIP3     H1       HT       0.417000       1.00800           0
     36914 TIP3     4868     TIP3     H2       HT       0.417000       1.00800           0
     36915 TIP3     4869     TIP3     OH2      OT      -0.834000       15.9994           0
     36916 TIP3     4869     TIP3     H1       HT       0.417000       1.00800           0
     36917 TIP3     4869     TIP3     H2       HT       0.417000       1.00800           0
     36918 TIP3     4870     TIP3     OH2      OT      -0.834000       15.9994           0
     36919 TIP3     4870     TIP3     H1       HT       0.417000       1.00800           0
     36920 TIP3     4870     TIP3     H2       HT       0.417000       1.00800           0
     36921 TIP3     4871     TIP3     OH2      OT      -0.834000       15.9994           0
     36922 TIP3     4871     TIP3     H1       HT       0.417000       1.00800           0
     36923 TIP3     4871     TIP3     H2       HT       0.417000       1.00800           0
     36924 TIP3     4872     TIP3     OH2      OT      -0.834000       15.9994           0
     36925 TIP3     4872     TIP3     H1       HT       0.417000       1.00800           0
     36926 TIP3     4872     TIP3     H2       HT       0.417000       1.00800           0
     36927 TIP3     4873     TIP3     OH2      OT      -0.834000       15.9994           0
     36928 TIP3     4873     TIP3     H1       HT       0.417000       1.00800           0
     36929 TIP3     4873     TIP3     H2       HT       0.417000       1.00800           0
     36930 TIP3     4874     TIP3     OH2      OT      -0.834000       15.9994           0
     36931 TIP3     4874     TIP3     H1       HT       0.417000       1.00800           0
     36932 TIP3     4874     TIP3     H2       HT       0.417000       1.00800           0
     36933 TIP3     4875     TIP3     OH2      OT      -0.834000       15.9994           0
     36934 TIP3     4875     TIP3     H1       HT       0.417000       1.00800           0
     36935 TIP3     4875     TIP3     H2       HT       0.417000       1.00800           0
     36936 TIP3     4876     TIP3     OH2      OT      -0.834000       15.9994           0
     36937 TIP3     4876     TIP3     H1       HT       0.417000       1.00800           0
     36938 TIP3     4876     TIP3     H2       HT       0.417000       1.00800           0
     36939 TIP3     4877     TIP3     OH2      OT      -0.834000       15.9994           0
     36940 TIP3     4877     TIP3     H1       HT       0.417000       1.00800           0
     36941 TIP3     4877     TIP3     H2       HT       0.417000       1.00800           0
     36942 TIP3     4878     TIP3     OH2      OT      -0.834000       15.9994           0
     36943 TIP3     4878     TIP3     H1       HT       0.417000       1.00800           0
     36944 TIP3     4878     TIP3     H2       HT       0.417000       1.00800           0
     36945 TIP3     4879     TIP3     OH2      OT      -0.834000       15.9994           0
     36946 TIP3     4879     TIP3     H1       HT       0.417000       1.00800           0
     36947 TIP3     4879     TIP3     H2       HT       0.417000       1.00800           0
     36948 TIP3     4880     TIP3     OH2      OT      -0.834000       15.9994           0
     36949 TIP3     4880     TIP3     H1       HT       0.417000       1.00800           0
     36950 TIP3     4880     TIP3     H2       HT       0.417000       1.00800           0
     36951 TIP3     4881     TIP3     OH2      OT      -0.834000       15.9994           0
     36952 TIP3     4881     TIP3     H1       HT       0.417000       1.00800           0
     36953 TIP3     4881     TIP3     H2       HT       0.417000       1.00800           0
     36954 TIP3     4882     TIP3     OH2      OT      -0.834000       15.9994           0
     36955 TIP3     4882     TIP3     H1       HT       0.417000       1.00800           0
     36956 TIP3     4882     TIP3     H2       HT       0.417000       1.00800           0
     36957 TIP3     4883     TIP3     OH2      OT      -0.834000       15.9994           0
     36958 TIP3     4883     TIP3     H1       HT       0.417000       1.00800           0
     36959 TIP3     4883     TIP3     H2       HT       0.417000       1.00800           0
     36960 TIP3     4884     TIP3     OH2      OT      -0.834000       15.9994           0
     36961 TIP3     4884     TIP3     H1       HT       0.417000       1.00800           0
     36962 TIP3     4884     TIP3     H2       HT       0.417000       1.00800           0
     36963 TIP3     4885     TIP3     OH2      OT      -0.834000       15.9994           0
     36964 TIP3     4885     TIP3     H1       HT       0.417000       1.00800           0
     36965 TIP3     4885     TIP3     H2       HT       0.417000       1.00800           0
     36966 TIP3     4886     TIP3     OH2      OT      -0.834000       15.9994           0
     36967 TIP3     4886     TIP3     H1       HT       0.417000       1.00800           0
     36968 TIP3     4886     TIP3     H2       HT       0.417000       1.00800           0
     36969 TIP3     4887     TIP3     OH2      OT      -0.834000       15.9994           0
     36970 TIP3     4887     TIP3     H1       HT       0.417000       1.00800           0
     36971 TIP3     4887     TIP3     H2       HT       0.417000       1.00800           0
     36972 TIP3     4888     TIP3     OH2      OT      -0.834000       15.9994           0
     36973 TIP3     4888     TIP3     H1       HT       0.417000       1.00800           0
     36974 TIP3     4888     TIP3     H2       HT       0.417000       1.00800           0
     36975 TIP3     4889     TIP3     OH2      OT      -0.834000       15.9994           0
     36976 TIP3     4889     TIP3     H1       HT       0.417000       1.00800           0
     36977 TIP3     4889     TIP3     H2       HT       0.417000       1.00800           0
     36978 TIP3     4890     TIP3     OH2      OT      -0.834000       15.9994           0
     36979 TIP3     4890     TIP3     H1       HT       0.417000       1.00800           0
     36980 TIP3     4890     TIP3     H2       HT       0.417000       1.00800           0
     36981 TIP3     4891     TIP3     OH2      OT      -0.834000       15.9994           0
     36982 TIP3     4891     TIP3     H1       HT       0.417000       1.00800           0
     36983 TIP3     4891     TIP3     H2       HT       0.417000       1.00800           0
     36984 TIP3     4892     TIP3     OH2      OT      -0.834000       15.9994           0
     36985 TIP3     4892     TIP3     H1       HT       0.417000       1.00800           0
     36986 TIP3     4892     TIP3     H2       HT       0.417000       1.00800           0
     36987 TIP3     4893     TIP3     OH2      OT      -0.834000       15.9994           0
     36988 TIP3     4893     TIP3     H1       HT       0.417000       1.00800           0
     36989 TIP3     4893     TIP3     H2       HT       0.417000       1.00800           0
     36990 TIP3     4894     TIP3     OH2      OT      -0.834000       15.9994           0
     36991 TIP3     4894     TIP3     H1       HT       0.417000       1.00800           0
     36992 TIP3     4894     TIP3     H2       HT       0.417000       1.00800           0
     36993 TIP3     4895     TIP3     OH2      OT      -0.834000       15.9994           0
     36994 TIP3     4895     TIP3     H1       HT       0.417000       1.00800           0
     36995 TIP3     4895     TIP3     H2       HT       0.417000       1.00800           0
     36996 TIP3     4896     TIP3     OH2      OT      -0.834000       15.9994           0
     36997 TIP3     4896     TIP3     H1       HT       0.417000       1.00800           0
     36998 TIP3     4896     TIP3     H2       HT       0.417000       1.00800           0
     36999 TIP3     4897     TIP3     OH2      OT      -0.834000       15.9994           0
     37000 TIP3     4897     TIP3     H1       HT       0.417000       1.00800           0
     37001 TIP3     4897     TIP3     H2       HT       0.417000       1.00800           0
     37002 TIP3     4898     TIP3     OH2      OT      -0.834000       15.9994           0
     37003 TIP3     4898     TIP3     H1       HT       0.417000       1.00800           0
     37004 TIP3     4898     TIP3     H2       HT       0.417000       1.00800           0
     37005 TIP3     4899     TIP3     OH2      OT      -0.834000       15.9994           0
     37006 TIP3     4899     TIP3     H1       HT       0.417000       1.00800           0
     37007 TIP3     4899     TIP3     H2       HT       0.417000       1.00800           0
     37008 TIP3     4900     TIP3     OH2      OT      -0.834000       15.9994           0
     37009 TIP3     4900     TIP3     H1       HT       0.417000       1.00800           0
     37010 TIP3     4900     TIP3     H2       HT       0.417000       1.00800           0
     37011 TIP3     4901     TIP3     OH2      OT      -0.834000       15.9994           0
     37012 TIP3     4901     TIP3     H1       HT       0.417000       1.00800           0
     37013 TIP3     4901     TIP3     H2       HT       0.417000       1.00800           0
     37014 TIP3     4902     TIP3     OH2      OT      -0.834000       15.9994           0
     37015 TIP3     4902     TIP3     H1       HT       0.417000       1.00800           0
     37016 TIP3     4902     TIP3     H2       HT       0.417000       1.00800           0
     37017 TIP3     4903     TIP3     OH2      OT      -0.834000       15.9994           0
     37018 TIP3     4903     TIP3     H1       HT       0.417000       1.00800           0
     37019 TIP3     4903     TIP3     H2       HT       0.417000       1.00800           0
     37020 TIP3     4904     TIP3     OH2      OT      -0.834000       15.9994           0
     37021 TIP3     4904     TIP3     H1       HT       0.417000       1.00800           0
     37022 TIP3     4904     TIP3     H2       HT       0.417000       1.00800           0
     37023 TIP3     4905     TIP3     OH2      OT      -0.834000       15.9994           0
     37024 TIP3     4905     TIP3     H1       HT       0.417000       1.00800           0
     37025 TIP3     4905     TIP3     H2       HT       0.417000       1.00800           0
     37026 TIP3     4906     TIP3     OH2      OT      -0.834000       15.9994           0
     37027 TIP3     4906     TIP3     H1       HT       0.417000       1.00800           0
     37028 TIP3     4906     TIP3     H2       HT       0.417000       1.00800           0
     37029 TIP3     4907     TIP3     OH2      OT      -0.834000       15.9994           0
     37030 TIP3     4907     TIP3     H1       HT       0.417000       1.00800           0
     37031 TIP3     4907     TIP3     H2       HT       0.417000       1.00800           0
     37032 TIP3     4908     TIP3     OH2      OT      -0.834000       15.9994           0
     37033 TIP3     4908     TIP3     H1       HT       0.417000       1.00800           0
     37034 TIP3     4908     TIP3     H2       HT       0.417000       1.00800           0
     37035 TIP3     4909     TIP3     OH2      OT      -0.834000       15.9994           0
     37036 TIP3     4909     TIP3     H1       HT       0.417000       1.00800           0
     37037 TIP3     4909     TIP3     H2       HT       0.417000       1.00800           0
     37038 TIP3     4910     TIP3     OH2      OT      -0.834000       15.9994           0
     37039 TIP3     4910     TIP3     H1       HT       0.417000       1.00800           0
     37040 TIP3     4910     TIP3     H2       HT       0.417000       1.00800           0
     37041 TIP3     4911     TIP3     OH2      OT      -0.834000       15.9994           0
     37042 TIP3     4911     TIP3     H1       HT       0.417000       1.00800           0
     37043 TIP3     4911     TIP3     H2       HT       0.417000       1.00800           0
     37044 TIP3     4912     TIP3     OH2      OT      -0.834000       15.9994           0
     37045 TIP3     4912     TIP3     H1       HT       0.417000       1.00800           0
     37046 TIP3     4912     TIP3     H2       HT       0.417000       1.00800           0
     37047 TIP3     4913     TIP3     OH2      OT      -0.834000       15.9994           0
     37048 TIP3     4913     TIP3     H1       HT       0.417000       1.00800           0
     37049 TIP3     4913     TIP3     H2       HT       0.417000       1.00800           0
     37050 TIP3     4914     TIP3     OH2      OT      -0.834000       15.9994           0
     37051 TIP3     4914     TIP3     H1       HT       0.417000       1.00800           0
     37052 TIP3     4914     TIP3     H2       HT       0.417000       1.00800           0
     37053 TIP3     4915     TIP3     OH2      OT      -0.834000       15.9994           0
     37054 TIP3     4915     TIP3     H1       HT       0.417000       1.00800           0
     37055 TIP3     4915     TIP3     H2       HT       0.417000       1.00800           0
     37056 TIP3     4916     TIP3     OH2      OT      -0.834000       15.9994           0
     37057 TIP3     4916     TIP3     H1       HT       0.417000       1.00800           0
     37058 TIP3     4916     TIP3     H2       HT       0.417000       1.00800           0
     37059 TIP3     4917     TIP3     OH2      OT      -0.834000       15.9994           0
     37060 TIP3     4917     TIP3     H1       HT       0.417000       1.00800           0
     37061 TIP3     4917     TIP3     H2       HT       0.417000       1.00800           0
     37062 TIP3     4918     TIP3     OH2      OT      -0.834000       15.9994           0
     37063 TIP3     4918     TIP3     H1       HT       0.417000       1.00800           0
     37064 TIP3     4918     TIP3     H2       HT       0.417000       1.00800           0
     37065 TIP3     4919     TIP3     OH2      OT      -0.834000       15.9994           0
     37066 TIP3     4919     TIP3     H1       HT       0.417000       1.00800           0
     37067 TIP3     4919     TIP3     H2       HT       0.417000       1.00800           0
     37068 TIP3     4920     TIP3     OH2      OT      -0.834000       15.9994           0
     37069 TIP3     4920     TIP3     H1       HT       0.417000       1.00800           0
     37070 TIP3     4920     TIP3     H2       HT       0.417000       1.00800           0
     37071 TIP3     4921     TIP3     OH2      OT      -0.834000       15.9994           0
     37072 TIP3     4921     TIP3     H1       HT       0.417000       1.00800           0
     37073 TIP3     4921     TIP3     H2       HT       0.417000       1.00800           0
     37074 TIP3     4922     TIP3     OH2      OT      -0.834000       15.9994           0
     37075 TIP3     4922     TIP3     H1       HT       0.417000       1.00800           0
     37076 TIP3     4922     TIP3     H2       HT       0.417000       1.00800           0
     37077 TIP3     4923     TIP3     OH2      OT      -0.834000       15.9994           0
     37078 TIP3     4923     TIP3     H1       HT       0.417000       1.00800           0
     37079 TIP3     4923     TIP3     H2       HT       0.417000       1.00800           0
     37080 TIP3     4924     TIP3     OH2      OT      -0.834000       15.9994           0
     37081 TIP3     4924     TIP3     H1       HT       0.417000       1.00800           0
     37082 TIP3     4924     TIP3     H2       HT       0.417000       1.00800           0
     37083 TIP3     4925     TIP3     OH2      OT      -0.834000       15.9994           0
     37084 TIP3     4925     TIP3     H1       HT       0.417000       1.00800           0
     37085 TIP3     4925     TIP3     H2       HT       0.417000       1.00800           0
     37086 TIP3     4926     TIP3     OH2      OT      -0.834000       15.9994           0
     37087 TIP3     4926     TIP3     H1       HT       0.417000       1.00800           0
     37088 TIP3     4926     TIP3     H2       HT       0.417000       1.00800           0
     37089 TIP3     4927     TIP3     OH2      OT      -0.834000       15.9994           0
     37090 TIP3     4927     TIP3     H1       HT       0.417000       1.00800           0
     37091 TIP3     4927     TIP3     H2       HT       0.417000       1.00800           0
     37092 TIP3     4928     TIP3     OH2      OT      -0.834000       15.9994           0
     37093 TIP3     4928     TIP3     H1       HT       0.417000       1.00800           0
     37094 TIP3     4928     TIP3     H2       HT       0.417000       1.00800           0
     37095 TIP3     4929     TIP3     OH2      OT      -0.834000       15.9994           0
     37096 TIP3     4929     TIP3     H1       HT       0.417000       1.00800           0
     37097 TIP3     4929     TIP3     H2       HT       0.417000       1.00800           0
     37098 TIP3     4930     TIP3     OH2      OT      -0.834000       15.9994           0
     37099 TIP3     4930     TIP3     H1       HT       0.417000       1.00800           0
     37100 TIP3     4930     TIP3     H2       HT       0.417000       1.00800           0
     37101 TIP3     4931     TIP3     OH2      OT      -0.834000       15.9994           0
     37102 TIP3     4931     TIP3     H1       HT       0.417000       1.00800           0
     37103 TIP3     4931     TIP3     H2       HT       0.417000       1.00800           0
     37104 TIP3     4932     TIP3     OH2      OT      -0.834000       15.9994           0
     37105 TIP3     4932     TIP3     H1       HT       0.417000       1.00800           0
     37106 TIP3     4932     TIP3     H2       HT       0.417000       1.00800           0
     37107 TIP3     4933     TIP3     OH2      OT      -0.834000       15.9994           0
     37108 TIP3     4933     TIP3     H1       HT       0.417000       1.00800           0
     37109 TIP3     4933     TIP3     H2       HT       0.417000       1.00800           0
     37110 TIP3     4934     TIP3     OH2      OT      -0.834000       15.9994           0
     37111 TIP3     4934     TIP3     H1       HT       0.417000       1.00800           0
     37112 TIP3     4934     TIP3     H2       HT       0.417000       1.00800           0
     37113 TIP3     4935     TIP3     OH2      OT      -0.834000       15.9994           0
     37114 TIP3     4935     TIP3     H1       HT       0.417000       1.00800           0
     37115 TIP3     4935     TIP3     H2       HT       0.417000       1.00800           0
     37116 TIP3     4936     TIP3     OH2      OT      -0.834000       15.9994           0
     37117 TIP3     4936     TIP3     H1       HT       0.417000       1.00800           0
     37118 TIP3     4936     TIP3     H2       HT       0.417000       1.00800           0
     37119 TIP3     4937     TIP3     OH2      OT      -0.834000       15.9994           0
     37120 TIP3     4937     TIP3     H1       HT       0.417000       1.00800           0
     37121 TIP3     4937     TIP3     H2       HT       0.417000       1.00800           0
     37122 TIP3     4938     TIP3     OH2      OT      -0.834000       15.9994           0
     37123 TIP3     4938     TIP3     H1       HT       0.417000       1.00800           0
     37124 TIP3     4938     TIP3     H2       HT       0.417000       1.00800           0
     37125 TIP3     4939     TIP3     OH2      OT      -0.834000       15.9994           0
     37126 TIP3     4939     TIP3     H1       HT       0.417000       1.00800           0
     37127 TIP3     4939     TIP3     H2       HT       0.417000       1.00800           0
     37128 TIP3     4940     TIP3     OH2      OT      -0.834000       15.9994           0
     37129 TIP3     4940     TIP3     H1       HT       0.417000       1.00800           0
     37130 TIP3     4940     TIP3     H2       HT       0.417000       1.00800           0
     37131 TIP3     4941     TIP3     OH2      OT      -0.834000       15.9994           0
     37132 TIP3     4941     TIP3     H1       HT       0.417000       1.00800           0
     37133 TIP3     4941     TIP3     H2       HT       0.417000       1.00800           0
     37134 TIP3     4942     TIP3     OH2      OT      -0.834000       15.9994           0
     37135 TIP3     4942     TIP3     H1       HT       0.417000       1.00800           0
     37136 TIP3     4942     TIP3     H2       HT       0.417000       1.00800           0
     37137 TIP3     4943     TIP3     OH2      OT      -0.834000       15.9994           0
     37138 TIP3     4943     TIP3     H1       HT       0.417000       1.00800           0
     37139 TIP3     4943     TIP3     H2       HT       0.417000       1.00800           0
     37140 TIP3     4944     TIP3     OH2      OT      -0.834000       15.9994           0
     37141 TIP3     4944     TIP3     H1       HT       0.417000       1.00800           0
     37142 TIP3     4944     TIP3     H2       HT       0.417000       1.00800           0
     37143 TIP3     4945     TIP3     OH2      OT      -0.834000       15.9994           0
     37144 TIP3     4945     TIP3     H1       HT       0.417000       1.00800           0
     37145 TIP3     4945     TIP3     H2       HT       0.417000       1.00800           0
     37146 TIP3     4946     TIP3     OH2      OT      -0.834000       15.9994           0
     37147 TIP3     4946     TIP3     H1       HT       0.417000       1.00800           0
     37148 TIP3     4946     TIP3     H2       HT       0.417000       1.00800           0
     37149 TIP3     4947     TIP3     OH2      OT      -0.834000       15.9994           0
     37150 TIP3     4947     TIP3     H1       HT       0.417000       1.00800           0
     37151 TIP3     4947     TIP3     H2       HT       0.417000       1.00800           0
     37152 TIP3     4948     TIP3     OH2      OT      -0.834000       15.9994           0
     37153 TIP3     4948     TIP3     H1       HT       0.417000       1.00800           0
     37154 TIP3     4948     TIP3     H2       HT       0.417000       1.00800           0
     37155 TIP3     4949     TIP3     OH2      OT      -0.834000       15.9994           0
     37156 TIP3     4949     TIP3     H1       HT       0.417000       1.00800           0
     37157 TIP3     4949     TIP3     H2       HT       0.417000       1.00800           0
     37158 TIP3     4950     TIP3     OH2      OT      -0.834000       15.9994           0
     37159 TIP3     4950     TIP3     H1       HT       0.417000       1.00800           0
     37160 TIP3     4950     TIP3     H2       HT       0.417000       1.00800           0
     37161 TIP3     4951     TIP3     OH2      OT      -0.834000       15.9994           0
     37162 TIP3     4951     TIP3     H1       HT       0.417000       1.00800           0
     37163 TIP3     4951     TIP3     H2       HT       0.417000       1.00800           0
     37164 TIP3     4952     TIP3     OH2      OT      -0.834000       15.9994           0
     37165 TIP3     4952     TIP3     H1       HT       0.417000       1.00800           0
     37166 TIP3     4952     TIP3     H2       HT       0.417000       1.00800           0
     37167 TIP3     4953     TIP3     OH2      OT      -0.834000       15.9994           0
     37168 TIP3     4953     TIP3     H1       HT       0.417000       1.00800           0
     37169 TIP3     4953     TIP3     H2       HT       0.417000       1.00800           0
     37170 TIP3     4954     TIP3     OH2      OT      -0.834000       15.9994           0
     37171 TIP3     4954     TIP3     H1       HT       0.417000       1.00800           0
     37172 TIP3     4954     TIP3     H2       HT       0.417000       1.00800           0
     37173 TIP3     4955     TIP3     OH2      OT      -0.834000       15.9994           0
     37174 TIP3     4955     TIP3     H1       HT       0.417000       1.00800           0
     37175 TIP3     4955     TIP3     H2       HT       0.417000       1.00800           0
     37176 TIP3     4956     TIP3     OH2      OT      -0.834000       15.9994           0
     37177 TIP3     4956     TIP3     H1       HT       0.417000       1.00800           0
     37178 TIP3     4956     TIP3     H2       HT       0.417000       1.00800           0
     37179 TIP3     4957     TIP3     OH2      OT      -0.834000       15.9994           0
     37180 TIP3     4957     TIP3     H1       HT       0.417000       1.00800           0
     37181 TIP3     4957     TIP3     H2       HT       0.417000       1.00800           0
     37182 TIP3     4958     TIP3     OH2      OT      -0.834000       15.9994           0
     37183 TIP3     4958     TIP3     H1       HT       0.417000       1.00800           0
     37184 TIP3     4958     TIP3     H2       HT       0.417000       1.00800           0
     37185 TIP3     4959     TIP3     OH2      OT      -0.834000       15.9994           0
     37186 TIP3     4959     TIP3     H1       HT       0.417000       1.00800           0
     37187 TIP3     4959     TIP3     H2       HT       0.417000       1.00800           0
     37188 TIP3     4960     TIP3     OH2      OT      -0.834000       15.9994           0
     37189 TIP3     4960     TIP3     H1       HT       0.417000       1.00800           0
     37190 TIP3     4960     TIP3     H2       HT       0.417000       1.00800           0
     37191 TIP3     4961     TIP3     OH2      OT      -0.834000       15.9994           0
     37192 TIP3     4961     TIP3     H1       HT       0.417000       1.00800           0
     37193 TIP3     4961     TIP3     H2       HT       0.417000       1.00800           0
     37194 TIP3     4962     TIP3     OH2      OT      -0.834000       15.9994           0
     37195 TIP3     4962     TIP3     H1       HT       0.417000       1.00800           0
     37196 TIP3     4962     TIP3     H2       HT       0.417000       1.00800           0
     37197 TIP3     4963     TIP3     OH2      OT      -0.834000       15.9994           0
     37198 TIP3     4963     TIP3     H1       HT       0.417000       1.00800           0
     37199 TIP3     4963     TIP3     H2       HT       0.417000       1.00800           0
     37200 TIP3     4964     TIP3     OH2      OT      -0.834000       15.9994           0
     37201 TIP3     4964     TIP3     H1       HT       0.417000       1.00800           0
     37202 TIP3     4964     TIP3     H2       HT       0.417000       1.00800           0
     37203 TIP3     4965     TIP3     OH2      OT      -0.834000       15.9994           0
     37204 TIP3     4965     TIP3     H1       HT       0.417000       1.00800           0
     37205 TIP3     4965     TIP3     H2       HT       0.417000       1.00800           0
     37206 TIP3     4966     TIP3     OH2      OT      -0.834000       15.9994           0
     37207 TIP3     4966     TIP3     H1       HT       0.417000       1.00800           0
     37208 TIP3     4966     TIP3     H2       HT       0.417000       1.00800           0
     37209 TIP3     4967     TIP3     OH2      OT      -0.834000       15.9994           0
     37210 TIP3     4967     TIP3     H1       HT       0.417000       1.00800           0
     37211 TIP3     4967     TIP3     H2       HT       0.417000       1.00800           0
     37212 TIP3     4968     TIP3     OH2      OT      -0.834000       15.9994           0
     37213 TIP3     4968     TIP3     H1       HT       0.417000       1.00800           0
     37214 TIP3     4968     TIP3     H2       HT       0.417000       1.00800           0
     37215 TIP3     4969     TIP3     OH2      OT      -0.834000       15.9994           0
     37216 TIP3     4969     TIP3     H1       HT       0.417000       1.00800           0
     37217 TIP3     4969     TIP3     H2       HT       0.417000       1.00800           0
     37218 TIP3     4970     TIP3     OH2      OT      -0.834000       15.9994           0
     37219 TIP3     4970     TIP3     H1       HT       0.417000       1.00800           0
     37220 TIP3     4970     TIP3     H2       HT       0.417000       1.00800           0
     37221 TIP3     4971     TIP3     OH2      OT      -0.834000       15.9994           0
     37222 TIP3     4971     TIP3     H1       HT       0.417000       1.00800           0
     37223 TIP3     4971     TIP3     H2       HT       0.417000       1.00800           0
     37224 TIP3     4972     TIP3     OH2      OT      -0.834000       15.9994           0
     37225 TIP3     4972     TIP3     H1       HT       0.417000       1.00800           0
     37226 TIP3     4972     TIP3     H2       HT       0.417000       1.00800           0
     37227 TIP3     4973     TIP3     OH2      OT      -0.834000       15.9994           0
     37228 TIP3     4973     TIP3     H1       HT       0.417000       1.00800           0
     37229 TIP3     4973     TIP3     H2       HT       0.417000       1.00800           0
     37230 TIP3     4974     TIP3     OH2      OT      -0.834000       15.9994           0
     37231 TIP3     4974     TIP3     H1       HT       0.417000       1.00800           0
     37232 TIP3     4974     TIP3     H2       HT       0.417000       1.00800           0
     37233 TIP3     4975     TIP3     OH2      OT      -0.834000       15.9994           0
     37234 TIP3     4975     TIP3     H1       HT       0.417000       1.00800           0
     37235 TIP3     4975     TIP3     H2       HT       0.417000       1.00800           0
     37236 TIP3     4976     TIP3     OH2      OT      -0.834000       15.9994           0
     37237 TIP3     4976     TIP3     H1       HT       0.417000       1.00800           0
     37238 TIP3     4976     TIP3     H2       HT       0.417000       1.00800           0
     37239 TIP3     4977     TIP3     OH2      OT      -0.834000       15.9994           0
     37240 TIP3     4977     TIP3     H1       HT       0.417000       1.00800           0
     37241 TIP3     4977     TIP3     H2       HT       0.417000       1.00800           0
     37242 TIP3     4978     TIP3     OH2      OT      -0.834000       15.9994           0
     37243 TIP3     4978     TIP3     H1       HT       0.417000       1.00800           0
     37244 TIP3     4978     TIP3     H2       HT       0.417000       1.00800           0
     37245 TIP3     4979     TIP3     OH2      OT      -0.834000       15.9994           0
     37246 TIP3     4979     TIP3     H1       HT       0.417000       1.00800           0
     37247 TIP3     4979     TIP3     H2       HT       0.417000       1.00800           0
     37248 TIP3     4980     TIP3     OH2      OT      -0.834000       15.9994           0
     37249 TIP3     4980     TIP3     H1       HT       0.417000       1.00800           0
     37250 TIP3     4980     TIP3     H2       HT       0.417000       1.00800           0
     37251 TIP3     4981     TIP3     OH2      OT      -0.834000       15.9994           0
     37252 TIP3     4981     TIP3     H1       HT       0.417000       1.00800           0
     37253 TIP3     4981     TIP3     H2       HT       0.417000       1.00800           0
     37254 TIP3     4982     TIP3     OH2      OT      -0.834000       15.9994           0
     37255 TIP3     4982     TIP3     H1       HT       0.417000       1.00800           0
     37256 TIP3     4982     TIP3     H2       HT       0.417000       1.00800           0
     37257 TIP3     4983     TIP3     OH2      OT      -0.834000       15.9994           0
     37258 TIP3     4983     TIP3     H1       HT       0.417000       1.00800           0
     37259 TIP3     4983     TIP3     H2       HT       0.417000       1.00800           0
     37260 TIP3     4984     TIP3     OH2      OT      -0.834000       15.9994           0
     37261 TIP3     4984     TIP3     H1       HT       0.417000       1.00800           0
     37262 TIP3     4984     TIP3     H2       HT       0.417000       1.00800           0
     37263 TIP3     4985     TIP3     OH2      OT      -0.834000       15.9994           0
     37264 TIP3     4985     TIP3     H1       HT       0.417000       1.00800           0
     37265 TIP3     4985     TIP3     H2       HT       0.417000       1.00800           0
     37266 TIP3     4986     TIP3     OH2      OT      -0.834000       15.9994           0
     37267 TIP3     4986     TIP3     H1       HT       0.417000       1.00800           0
     37268 TIP3     4986     TIP3     H2       HT       0.417000       1.00800           0
     37269 TIP3     4987     TIP3     OH2      OT      -0.834000       15.9994           0
     37270 TIP3     4987     TIP3     H1       HT       0.417000       1.00800           0
     37271 TIP3     4987     TIP3     H2       HT       0.417000       1.00800           0
     37272 TIP3     4988     TIP3     OH2      OT      -0.834000       15.9994           0
     37273 TIP3     4988     TIP3     H1       HT       0.417000       1.00800           0
     37274 TIP3     4988     TIP3     H2       HT       0.417000       1.00800           0
     37275 TIP3     4989     TIP3     OH2      OT      -0.834000       15.9994           0
     37276 TIP3     4989     TIP3     H1       HT       0.417000       1.00800           0
     37277 TIP3     4989     TIP3     H2       HT       0.417000       1.00800           0
     37278 TIP3     4990     TIP3     OH2      OT      -0.834000       15.9994           0
     37279 TIP3     4990     TIP3     H1       HT       0.417000       1.00800           0
     37280 TIP3     4990     TIP3     H2       HT       0.417000       1.00800           0
     37281 TIP3     4991     TIP3     OH2      OT      -0.834000       15.9994           0
     37282 TIP3     4991     TIP3     H1       HT       0.417000       1.00800           0
     37283 TIP3     4991     TIP3     H2       HT       0.417000       1.00800           0
     37284 TIP3     4992     TIP3     OH2      OT      -0.834000       15.9994           0
     37285 TIP3     4992     TIP3     H1       HT       0.417000       1.00800           0
     37286 TIP3     4992     TIP3     H2       HT       0.417000       1.00800           0
     37287 TIP3     4993     TIP3     OH2      OT      -0.834000       15.9994           0
     37288 TIP3     4993     TIP3     H1       HT       0.417000       1.00800           0
     37289 TIP3     4993     TIP3     H2       HT       0.417000       1.00800           0
     37290 TIP3     4994     TIP3     OH2      OT      -0.834000       15.9994           0
     37291 TIP3     4994     TIP3     H1       HT       0.417000       1.00800           0
     37292 TIP3     4994     TIP3     H2       HT       0.417000       1.00800           0
     37293 TIP3     4995     TIP3     OH2      OT      -0.834000       15.9994           0
     37294 TIP3     4995     TIP3     H1       HT       0.417000       1.00800           0
     37295 TIP3     4995     TIP3     H2       HT       0.417000       1.00800           0
     37296 TIP3     4996     TIP3     OH2      OT      -0.834000       15.9994           0
     37297 TIP3     4996     TIP3     H1       HT       0.417000       1.00800           0
     37298 TIP3     4996     TIP3     H2       HT       0.417000       1.00800           0
     37299 TIP3     4997     TIP3     OH2      OT      -0.834000       15.9994           0
     37300 TIP3     4997     TIP3     H1       HT       0.417000       1.00800           0
     37301 TIP3     4997     TIP3     H2       HT       0.417000       1.00800           0
     37302 TIP3     4998     TIP3     OH2      OT      -0.834000       15.9994           0
     37303 TIP3     4998     TIP3     H1       HT       0.417000       1.00800           0
     37304 TIP3     4998     TIP3     H2       HT       0.417000       1.00800           0
     37305 TIP3     4999     TIP3     OH2      OT      -0.834000       15.9994           0
     37306 TIP3     4999     TIP3     H1       HT       0.417000       1.00800           0
     37307 TIP3     4999     TIP3     H2       HT       0.417000       1.00800           0
     37308 TIP3     5000     TIP3     OH2      OT      -0.834000       15.9994           0
     37309 TIP3     5000     TIP3     H1       HT       0.417000       1.00800           0
     37310 TIP3     5000     TIP3     H2       HT       0.417000       1.00800           0
     37311 TIP3     5001     TIP3     OH2      OT      -0.834000       15.9994           0
     37312 TIP3     5001     TIP3     H1       HT       0.417000       1.00800           0
     37313 TIP3     5001     TIP3     H2       HT       0.417000       1.00800           0
     37314 TIP3     5002     TIP3     OH2      OT      -0.834000       15.9994           0
     37315 TIP3     5002     TIP3     H1       HT       0.417000       1.00800           0
     37316 TIP3     5002     TIP3     H2       HT       0.417000       1.00800           0
     37317 TIP3     5003     TIP3     OH2      OT      -0.834000       15.9994           0
     37318 TIP3     5003     TIP3     H1       HT       0.417000       1.00800           0
     37319 TIP3     5003     TIP3     H2       HT       0.417000       1.00800           0
     37320 TIP3     5004     TIP3     OH2      OT      -0.834000       15.9994           0
     37321 TIP3     5004     TIP3     H1       HT       0.417000       1.00800           0
     37322 TIP3     5004     TIP3     H2       HT       0.417000       1.00800           0
     37323 TIP3     5005     TIP3     OH2      OT      -0.834000       15.9994           0
     37324 TIP3     5005     TIP3     H1       HT       0.417000       1.00800           0
     37325 TIP3     5005     TIP3     H2       HT       0.417000       1.00800           0
     37326 TIP3     5006     TIP3     OH2      OT      -0.834000       15.9994           0
     37327 TIP3     5006     TIP3     H1       HT       0.417000       1.00800           0
     37328 TIP3     5006     TIP3     H2       HT       0.417000       1.00800           0
     37329 TIP3     5007     TIP3     OH2      OT      -0.834000       15.9994           0
     37330 TIP3     5007     TIP3     H1       HT       0.417000       1.00800           0
     37331 TIP3     5007     TIP3     H2       HT       0.417000       1.00800           0
     37332 TIP3     5008     TIP3     OH2      OT      -0.834000       15.9994           0
     37333 TIP3     5008     TIP3     H1       HT       0.417000       1.00800           0
     37334 TIP3     5008     TIP3     H2       HT       0.417000       1.00800           0
     37335 TIP3     5009     TIP3     OH2      OT      -0.834000       15.9994           0
     37336 TIP3     5009     TIP3     H1       HT       0.417000       1.00800           0
     37337 TIP3     5009     TIP3     H2       HT       0.417000       1.00800           0
     37338 TIP3     5010     TIP3     OH2      OT      -0.834000       15.9994           0
     37339 TIP3     5010     TIP3     H1       HT       0.417000       1.00800           0
     37340 TIP3     5010     TIP3     H2       HT       0.417000       1.00800           0
     37341 TIP3     5011     TIP3     OH2      OT      -0.834000       15.9994           0
     37342 TIP3     5011     TIP3     H1       HT       0.417000       1.00800           0
     37343 TIP3     5011     TIP3     H2       HT       0.417000       1.00800           0
     37344 TIP3     5012     TIP3     OH2      OT      -0.834000       15.9994           0
     37345 TIP3     5012     TIP3     H1       HT       0.417000       1.00800           0
     37346 TIP3     5012     TIP3     H2       HT       0.417000       1.00800           0
     37347 TIP3     5013     TIP3     OH2      OT      -0.834000       15.9994           0
     37348 TIP3     5013     TIP3     H1       HT       0.417000       1.00800           0
     37349 TIP3     5013     TIP3     H2       HT       0.417000       1.00800           0
     37350 TIP3     5014     TIP3     OH2      OT      -0.834000       15.9994           0
     37351 TIP3     5014     TIP3     H1       HT       0.417000       1.00800           0
     37352 TIP3     5014     TIP3     H2       HT       0.417000       1.00800           0
     37353 TIP3     5015     TIP3     OH2      OT      -0.834000       15.9994           0
     37354 TIP3     5015     TIP3     H1       HT       0.417000       1.00800           0
     37355 TIP3     5015     TIP3     H2       HT       0.417000       1.00800           0
     37356 TIP3     5016     TIP3     OH2      OT      -0.834000       15.9994           0
     37357 TIP3     5016     TIP3     H1       HT       0.417000       1.00800           0
     37358 TIP3     5016     TIP3     H2       HT       0.417000       1.00800           0
     37359 TIP3     5017     TIP3     OH2      OT      -0.834000       15.9994           0
     37360 TIP3     5017     TIP3     H1       HT       0.417000       1.00800           0
     37361 TIP3     5017     TIP3     H2       HT       0.417000       1.00800           0
     37362 TIP3     5018     TIP3     OH2      OT      -0.834000       15.9994           0
     37363 TIP3     5018     TIP3     H1       HT       0.417000       1.00800           0
     37364 TIP3     5018     TIP3     H2       HT       0.417000       1.00800           0
     37365 TIP3     5019     TIP3     OH2      OT      -0.834000       15.9994           0
     37366 TIP3     5019     TIP3     H1       HT       0.417000       1.00800           0
     37367 TIP3     5019     TIP3     H2       HT       0.417000       1.00800           0
     37368 TIP3     5020     TIP3     OH2      OT      -0.834000       15.9994           0
     37369 TIP3     5020     TIP3     H1       HT       0.417000       1.00800           0
     37370 TIP3     5020     TIP3     H2       HT       0.417000       1.00800           0
     37371 TIP3     5021     TIP3     OH2      OT      -0.834000       15.9994           0
     37372 TIP3     5021     TIP3     H1       HT       0.417000       1.00800           0
     37373 TIP3     5021     TIP3     H2       HT       0.417000       1.00800           0
     37374 TIP3     5022     TIP3     OH2      OT      -0.834000       15.9994           0
     37375 TIP3     5022     TIP3     H1       HT       0.417000       1.00800           0
     37376 TIP3     5022     TIP3     H2       HT       0.417000       1.00800           0
     37377 TIP3     5023     TIP3     OH2      OT      -0.834000       15.9994           0
     37378 TIP3     5023     TIP3     H1       HT       0.417000       1.00800           0
     37379 TIP3     5023     TIP3     H2       HT       0.417000       1.00800           0
     37380 TIP3     5024     TIP3     OH2      OT      -0.834000       15.9994           0
     37381 TIP3     5024     TIP3     H1       HT       0.417000       1.00800           0
     37382 TIP3     5024     TIP3     H2       HT       0.417000       1.00800           0
     37383 TIP3     5025     TIP3     OH2      OT      -0.834000       15.9994           0
     37384 TIP3     5025     TIP3     H1       HT       0.417000       1.00800           0
     37385 TIP3     5025     TIP3     H2       HT       0.417000       1.00800           0
     37386 TIP3     5026     TIP3     OH2      OT      -0.834000       15.9994           0
     37387 TIP3     5026     TIP3     H1       HT       0.417000       1.00800           0
     37388 TIP3     5026     TIP3     H2       HT       0.417000       1.00800           0
     37389 TIP3     5027     TIP3     OH2      OT      -0.834000       15.9994           0
     37390 TIP3     5027     TIP3     H1       HT       0.417000       1.00800           0
     37391 TIP3     5027     TIP3     H2       HT       0.417000       1.00800           0
     37392 TIP3     5028     TIP3     OH2      OT      -0.834000       15.9994           0
     37393 TIP3     5028     TIP3     H1       HT       0.417000       1.00800           0
     37394 TIP3     5028     TIP3     H2       HT       0.417000       1.00800           0
     37395 TIP3     5029     TIP3     OH2      OT      -0.834000       15.9994           0
     37396 TIP3     5029     TIP3     H1       HT       0.417000       1.00800           0
     37397 TIP3     5029     TIP3     H2       HT       0.417000       1.00800           0
     37398 TIP3     5030     TIP3     OH2      OT      -0.834000       15.9994           0
     37399 TIP3     5030     TIP3     H1       HT       0.417000       1.00800           0
     37400 TIP3     5030     TIP3     H2       HT       0.417000       1.00800           0
     37401 TIP3     5031     TIP3     OH2      OT      -0.834000       15.9994           0
     37402 TIP3     5031     TIP3     H1       HT       0.417000       1.00800           0
     37403 TIP3     5031     TIP3     H2       HT       0.417000       1.00800           0
     37404 TIP3     5032     TIP3     OH2      OT      -0.834000       15.9994           0
     37405 TIP3     5032     TIP3     H1       HT       0.417000       1.00800           0
     37406 TIP3     5032     TIP3     H2       HT       0.417000       1.00800           0
     37407 TIP3     5033     TIP3     OH2      OT      -0.834000       15.9994           0
     37408 TIP3     5033     TIP3     H1       HT       0.417000       1.00800           0
     37409 TIP3     5033     TIP3     H2       HT       0.417000       1.00800           0
     37410 TIP3     5034     TIP3     OH2      OT      -0.834000       15.9994           0
     37411 TIP3     5034     TIP3     H1       HT       0.417000       1.00800           0
     37412 TIP3     5034     TIP3     H2       HT       0.417000       1.00800           0
     37413 TIP3     5035     TIP3     OH2      OT      -0.834000       15.9994           0
     37414 TIP3     5035     TIP3     H1       HT       0.417000       1.00800           0
     37415 TIP3     5035     TIP3     H2       HT       0.417000       1.00800           0
     37416 TIP3     5036     TIP3     OH2      OT      -0.834000       15.9994           0
     37417 TIP3     5036     TIP3     H1       HT       0.417000       1.00800           0
     37418 TIP3     5036     TIP3     H2       HT       0.417000       1.00800           0
     37419 TIP3     5037     TIP3     OH2      OT      -0.834000       15.9994           0
     37420 TIP3     5037     TIP3     H1       HT       0.417000       1.00800           0
     37421 TIP3     5037     TIP3     H2       HT       0.417000       1.00800           0
     37422 TIP3     5038     TIP3     OH2      OT      -0.834000       15.9994           0
     37423 TIP3     5038     TIP3     H1       HT       0.417000       1.00800           0
     37424 TIP3     5038     TIP3     H2       HT       0.417000       1.00800           0
     37425 TIP3     5039     TIP3     OH2      OT      -0.834000       15.9994           0
     37426 TIP3     5039     TIP3     H1       HT       0.417000       1.00800           0
     37427 TIP3     5039     TIP3     H2       HT       0.417000       1.00800           0
     37428 TIP3     5040     TIP3     OH2      OT      -0.834000       15.9994           0
     37429 TIP3     5040     TIP3     H1       HT       0.417000       1.00800           0
     37430 TIP3     5040     TIP3     H2       HT       0.417000       1.00800           0
     37431 TIP3     5041     TIP3     OH2      OT      -0.834000       15.9994           0
     37432 TIP3     5041     TIP3     H1       HT       0.417000       1.00800           0
     37433 TIP3     5041     TIP3     H2       HT       0.417000       1.00800           0
     37434 TIP3     5042     TIP3     OH2      OT      -0.834000       15.9994           0
     37435 TIP3     5042     TIP3     H1       HT       0.417000       1.00800           0
     37436 TIP3     5042     TIP3     H2       HT       0.417000       1.00800           0
     37437 TIP3     5043     TIP3     OH2      OT      -0.834000       15.9994           0
     37438 TIP3     5043     TIP3     H1       HT       0.417000       1.00800           0
     37439 TIP3     5043     TIP3     H2       HT       0.417000       1.00800           0
     37440 TIP3     5044     TIP3     OH2      OT      -0.834000       15.9994           0
     37441 TIP3     5044     TIP3     H1       HT       0.417000       1.00800           0
     37442 TIP3     5044     TIP3     H2       HT       0.417000       1.00800           0
     37443 TIP3     5045     TIP3     OH2      OT      -0.834000       15.9994           0
     37444 TIP3     5045     TIP3     H1       HT       0.417000       1.00800           0
     37445 TIP3     5045     TIP3     H2       HT       0.417000       1.00800           0
     37446 TIP3     5046     TIP3     OH2      OT      -0.834000       15.9994           0
     37447 TIP3     5046     TIP3     H1       HT       0.417000       1.00800           0
     37448 TIP3     5046     TIP3     H2       HT       0.417000       1.00800           0
     37449 TIP3     5047     TIP3     OH2      OT      -0.834000       15.9994           0
     37450 TIP3     5047     TIP3     H1       HT       0.417000       1.00800           0
     37451 TIP3     5047     TIP3     H2       HT       0.417000       1.00800           0
     37452 TIP3     5048     TIP3     OH2      OT      -0.834000       15.9994           0
     37453 TIP3     5048     TIP3     H1       HT       0.417000       1.00800           0
     37454 TIP3     5048     TIP3     H2       HT       0.417000       1.00800           0
     37455 TIP3     5049     TIP3     OH2      OT      -0.834000       15.9994           0
     37456 TIP3     5049     TIP3     H1       HT       0.417000       1.00800           0
     37457 TIP3     5049     TIP3     H2       HT       0.417000       1.00800           0
     37458 TIP3     5050     TIP3     OH2      OT      -0.834000       15.9994           0
     37459 TIP3     5050     TIP3     H1       HT       0.417000       1.00800           0
     37460 TIP3     5050     TIP3     H2       HT       0.417000       1.00800           0
     37461 TIP3     5051     TIP3     OH2      OT      -0.834000       15.9994           0
     37462 TIP3     5051     TIP3     H1       HT       0.417000       1.00800           0
     37463 TIP3     5051     TIP3     H2       HT       0.417000       1.00800           0
     37464 TIP3     5052     TIP3     OH2      OT      -0.834000       15.9994           0
     37465 TIP3     5052     TIP3     H1       HT       0.417000       1.00800           0
     37466 TIP3     5052     TIP3     H2       HT       0.417000       1.00800           0
     37467 TIP3     5053     TIP3     OH2      OT      -0.834000       15.9994           0
     37468 TIP3     5053     TIP3     H1       HT       0.417000       1.00800           0
     37469 TIP3     5053     TIP3     H2       HT       0.417000       1.00800           0
     37470 TIP3     5054     TIP3     OH2      OT      -0.834000       15.9994           0
     37471 TIP3     5054     TIP3     H1       HT       0.417000       1.00800           0
     37472 TIP3     5054     TIP3     H2       HT       0.417000       1.00800           0
     37473 TIP3     5055     TIP3     OH2      OT      -0.834000       15.9994           0
     37474 TIP3     5055     TIP3     H1       HT       0.417000       1.00800           0
     37475 TIP3     5055     TIP3     H2       HT       0.417000       1.00800           0
     37476 TIP3     5056     TIP3     OH2      OT      -0.834000       15.9994           0
     37477 TIP3     5056     TIP3     H1       HT       0.417000       1.00800           0
     37478 TIP3     5056     TIP3     H2       HT       0.417000       1.00800           0
     37479 TIP3     5057     TIP3     OH2      OT      -0.834000       15.9994           0
     37480 TIP3     5057     TIP3     H1       HT       0.417000       1.00800           0
     37481 TIP3     5057     TIP3     H2       HT       0.417000       1.00800           0
     37482 TIP3     5058     TIP3     OH2      OT      -0.834000       15.9994           0
     37483 TIP3     5058     TIP3     H1       HT       0.417000       1.00800           0
     37484 TIP3     5058     TIP3     H2       HT       0.417000       1.00800           0
     37485 TIP3     5059     TIP3     OH2      OT      -0.834000       15.9994           0
     37486 TIP3     5059     TIP3     H1       HT       0.417000       1.00800           0
     37487 TIP3     5059     TIP3     H2       HT       0.417000       1.00800           0
     37488 TIP3     5060     TIP3     OH2      OT      -0.834000       15.9994           0
     37489 TIP3     5060     TIP3     H1       HT       0.417000       1.00800           0
     37490 TIP3     5060     TIP3     H2       HT       0.417000       1.00800           0
     37491 TIP3     5061     TIP3     OH2      OT      -0.834000       15.9994           0
     37492 TIP3     5061     TIP3     H1       HT       0.417000       1.00800           0
     37493 TIP3     5061     TIP3     H2       HT       0.417000       1.00800           0
     37494 TIP3     5062     TIP3     OH2      OT      -0.834000       15.9994           0
     37495 TIP3     5062     TIP3     H1       HT       0.417000       1.00800           0
     37496 TIP3     5062     TIP3     H2       HT       0.417000       1.00800           0
     37497 TIP3     5063     TIP3     OH2      OT      -0.834000       15.9994           0
     37498 TIP3     5063     TIP3     H1       HT       0.417000       1.00800           0
     37499 TIP3     5063     TIP3     H2       HT       0.417000       1.00800           0
     37500 TIP3     5064     TIP3     OH2      OT      -0.834000       15.9994           0
     37501 TIP3     5064     TIP3     H1       HT       0.417000       1.00800           0
     37502 TIP3     5064     TIP3     H2       HT       0.417000       1.00800           0
     37503 TIP3     5065     TIP3     OH2      OT      -0.834000       15.9994           0
     37504 TIP3     5065     TIP3     H1       HT       0.417000       1.00800           0
     37505 TIP3     5065     TIP3     H2       HT       0.417000       1.00800           0
     37506 TIP3     5066     TIP3     OH2      OT      -0.834000       15.9994           0
     37507 TIP3     5066     TIP3     H1       HT       0.417000       1.00800           0
     37508 TIP3     5066     TIP3     H2       HT       0.417000       1.00800           0
     37509 TIP3     5067     TIP3     OH2      OT      -0.834000       15.9994           0
     37510 TIP3     5067     TIP3     H1       HT       0.417000       1.00800           0
     37511 TIP3     5067     TIP3     H2       HT       0.417000       1.00800           0
     37512 TIP3     5068     TIP3     OH2      OT      -0.834000       15.9994           0
     37513 TIP3     5068     TIP3     H1       HT       0.417000       1.00800           0
     37514 TIP3     5068     TIP3     H2       HT       0.417000       1.00800           0
     37515 TIP3     5069     TIP3     OH2      OT      -0.834000       15.9994           0
     37516 TIP3     5069     TIP3     H1       HT       0.417000       1.00800           0
     37517 TIP3     5069     TIP3     H2       HT       0.417000       1.00800           0
     37518 TIP3     5070     TIP3     OH2      OT      -0.834000       15.9994           0
     37519 TIP3     5070     TIP3     H1       HT       0.417000       1.00800           0
     37520 TIP3     5070     TIP3     H2       HT       0.417000       1.00800           0
     37521 TIP3     5071     TIP3     OH2      OT      -0.834000       15.9994           0
     37522 TIP3     5071     TIP3     H1       HT       0.417000       1.00800           0
     37523 TIP3     5071     TIP3     H2       HT       0.417000       1.00800           0
     37524 TIP3     5072     TIP3     OH2      OT      -0.834000       15.9994           0
     37525 TIP3     5072     TIP3     H1       HT       0.417000       1.00800           0
     37526 TIP3     5072     TIP3     H2       HT       0.417000       1.00800           0
     37527 TIP3     5073     TIP3     OH2      OT      -0.834000       15.9994           0
     37528 TIP3     5073     TIP3     H1       HT       0.417000       1.00800           0
     37529 TIP3     5073     TIP3     H2       HT       0.417000       1.00800           0
     37530 TIP3     5074     TIP3     OH2      OT      -0.834000       15.9994           0
     37531 TIP3     5074     TIP3     H1       HT       0.417000       1.00800           0
     37532 TIP3     5074     TIP3     H2       HT       0.417000       1.00800           0
     37533 TIP3     5075     TIP3     OH2      OT      -0.834000       15.9994           0
     37534 TIP3     5075     TIP3     H1       HT       0.417000       1.00800           0
     37535 TIP3     5075     TIP3     H2       HT       0.417000       1.00800           0
     37536 TIP3     5076     TIP3     OH2      OT      -0.834000       15.9994           0
     37537 TIP3     5076     TIP3     H1       HT       0.417000       1.00800           0
     37538 TIP3     5076     TIP3     H2       HT       0.417000       1.00800           0
     37539 TIP3     5077     TIP3     OH2      OT      -0.834000       15.9994           0
     37540 TIP3     5077     TIP3     H1       HT       0.417000       1.00800           0
     37541 TIP3     5077     TIP3     H2       HT       0.417000       1.00800           0
     37542 TIP3     5078     TIP3     OH2      OT      -0.834000       15.9994           0
     37543 TIP3     5078     TIP3     H1       HT       0.417000       1.00800           0
     37544 TIP3     5078     TIP3     H2       HT       0.417000       1.00800           0
     37545 TIP3     5079     TIP3     OH2      OT      -0.834000       15.9994           0
     37546 TIP3     5079     TIP3     H1       HT       0.417000       1.00800           0
     37547 TIP3     5079     TIP3     H2       HT       0.417000       1.00800           0
     37548 TIP3     5080     TIP3     OH2      OT      -0.834000       15.9994           0
     37549 TIP3     5080     TIP3     H1       HT       0.417000       1.00800           0
     37550 TIP3     5080     TIP3     H2       HT       0.417000       1.00800           0
     37551 TIP3     5081     TIP3     OH2      OT      -0.834000       15.9994           0
     37552 TIP3     5081     TIP3     H1       HT       0.417000       1.00800           0
     37553 TIP3     5081     TIP3     H2       HT       0.417000       1.00800           0
     37554 TIP3     5082     TIP3     OH2      OT      -0.834000       15.9994           0
     37555 TIP3     5082     TIP3     H1       HT       0.417000       1.00800           0
     37556 TIP3     5082     TIP3     H2       HT       0.417000       1.00800           0
     37557 TIP3     5083     TIP3     OH2      OT      -0.834000       15.9994           0
     37558 TIP3     5083     TIP3     H1       HT       0.417000       1.00800           0
     37559 TIP3     5083     TIP3     H2       HT       0.417000       1.00800           0
     37560 TIP3     5084     TIP3     OH2      OT      -0.834000       15.9994           0
     37561 TIP3     5084     TIP3     H1       HT       0.417000       1.00800           0
     37562 TIP3     5084     TIP3     H2       HT       0.417000       1.00800           0
     37563 TIP3     5085     TIP3     OH2      OT      -0.834000       15.9994           0
     37564 TIP3     5085     TIP3     H1       HT       0.417000       1.00800           0
     37565 TIP3     5085     TIP3     H2       HT       0.417000       1.00800           0
     37566 TIP3     5086     TIP3     OH2      OT      -0.834000       15.9994           0
     37567 TIP3     5086     TIP3     H1       HT       0.417000       1.00800           0
     37568 TIP3     5086     TIP3     H2       HT       0.417000       1.00800           0
     37569 TIP3     5087     TIP3     OH2      OT      -0.834000       15.9994           0
     37570 TIP3     5087     TIP3     H1       HT       0.417000       1.00800           0
     37571 TIP3     5087     TIP3     H2       HT       0.417000       1.00800           0
     37572 TIP3     5088     TIP3     OH2      OT      -0.834000       15.9994           0
     37573 TIP3     5088     TIP3     H1       HT       0.417000       1.00800           0
     37574 TIP3     5088     TIP3     H2       HT       0.417000       1.00800           0
     37575 TIP3     5089     TIP3     OH2      OT      -0.834000       15.9994           0
     37576 TIP3     5089     TIP3     H1       HT       0.417000       1.00800           0
     37577 TIP3     5089     TIP3     H2       HT       0.417000       1.00800           0
     37578 TIP3     5090     TIP3     OH2      OT      -0.834000       15.9994           0
     37579 TIP3     5090     TIP3     H1       HT       0.417000       1.00800           0
     37580 TIP3     5090     TIP3     H2       HT       0.417000       1.00800           0
     37581 TIP3     5091     TIP3     OH2      OT      -0.834000       15.9994           0
     37582 TIP3     5091     TIP3     H1       HT       0.417000       1.00800           0
     37583 TIP3     5091     TIP3     H2       HT       0.417000       1.00800           0
     37584 TIP3     5092     TIP3     OH2      OT      -0.834000       15.9994           0
     37585 TIP3     5092     TIP3     H1       HT       0.417000       1.00800           0
     37586 TIP3     5092     TIP3     H2       HT       0.417000       1.00800           0
     37587 TIP3     5093     TIP3     OH2      OT      -0.834000       15.9994           0
     37588 TIP3     5093     TIP3     H1       HT       0.417000       1.00800           0
     37589 TIP3     5093     TIP3     H2       HT       0.417000       1.00800           0
     37590 TIP3     5094     TIP3     OH2      OT      -0.834000       15.9994           0
     37591 TIP3     5094     TIP3     H1       HT       0.417000       1.00800           0
     37592 TIP3     5094     TIP3     H2       HT       0.417000       1.00800           0
     37593 TIP3     5095     TIP3     OH2      OT      -0.834000       15.9994           0
     37594 TIP3     5095     TIP3     H1       HT       0.417000       1.00800           0
     37595 TIP3     5095     TIP3     H2       HT       0.417000       1.00800           0
     37596 TIP3     5096     TIP3     OH2      OT      -0.834000       15.9994           0
     37597 TIP3     5096     TIP3     H1       HT       0.417000       1.00800           0
     37598 TIP3     5096     TIP3     H2       HT       0.417000       1.00800           0
     37599 TIP3     5097     TIP3     OH2      OT      -0.834000       15.9994           0
     37600 TIP3     5097     TIP3     H1       HT       0.417000       1.00800           0
     37601 TIP3     5097     TIP3     H2       HT       0.417000       1.00800           0
     37602 TIP3     5098     TIP3     OH2      OT      -0.834000       15.9994           0
     37603 TIP3     5098     TIP3     H1       HT       0.417000       1.00800           0
     37604 TIP3     5098     TIP3     H2       HT       0.417000       1.00800           0
     37605 TIP3     5099     TIP3     OH2      OT      -0.834000       15.9994           0
     37606 TIP3     5099     TIP3     H1       HT       0.417000       1.00800           0
     37607 TIP3     5099     TIP3     H2       HT       0.417000       1.00800           0
     37608 TIP3     5100     TIP3     OH2      OT      -0.834000       15.9994           0
     37609 TIP3     5100     TIP3     H1       HT       0.417000       1.00800           0
     37610 TIP3     5100     TIP3     H2       HT       0.417000       1.00800           0
     37611 TIP3     5101     TIP3     OH2      OT      -0.834000       15.9994           0
     37612 TIP3     5101     TIP3     H1       HT       0.417000       1.00800           0
     37613 TIP3     5101     TIP3     H2       HT       0.417000       1.00800           0
     37614 TIP3     5102     TIP3     OH2      OT      -0.834000       15.9994           0
     37615 TIP3     5102     TIP3     H1       HT       0.417000       1.00800           0
     37616 TIP3     5102     TIP3     H2       HT       0.417000       1.00800           0
     37617 TIP3     5103     TIP3     OH2      OT      -0.834000       15.9994           0
     37618 TIP3     5103     TIP3     H1       HT       0.417000       1.00800           0
     37619 TIP3     5103     TIP3     H2       HT       0.417000       1.00800           0
     37620 TIP3     5104     TIP3     OH2      OT      -0.834000       15.9994           0
     37621 TIP3     5104     TIP3     H1       HT       0.417000       1.00800           0
     37622 TIP3     5104     TIP3     H2       HT       0.417000       1.00800           0
     37623 TIP3     5105     TIP3     OH2      OT      -0.834000       15.9994           0
     37624 TIP3     5105     TIP3     H1       HT       0.417000       1.00800           0
     37625 TIP3     5105     TIP3     H2       HT       0.417000       1.00800           0
     37626 TIP3     5106     TIP3     OH2      OT      -0.834000       15.9994           0
     37627 TIP3     5106     TIP3     H1       HT       0.417000       1.00800           0
     37628 TIP3     5106     TIP3     H2       HT       0.417000       1.00800           0
     37629 TIP3     5107     TIP3     OH2      OT      -0.834000       15.9994           0
     37630 TIP3     5107     TIP3     H1       HT       0.417000       1.00800           0
     37631 TIP3     5107     TIP3     H2       HT       0.417000       1.00800           0
     37632 TIP3     5108     TIP3     OH2      OT      -0.834000       15.9994           0
     37633 TIP3     5108     TIP3     H1       HT       0.417000       1.00800           0
     37634 TIP3     5108     TIP3     H2       HT       0.417000       1.00800           0
     37635 TIP3     5109     TIP3     OH2      OT      -0.834000       15.9994           0
     37636 TIP3     5109     TIP3     H1       HT       0.417000       1.00800           0
     37637 TIP3     5109     TIP3     H2       HT       0.417000       1.00800           0
     37638 TIP3     5110     TIP3     OH2      OT      -0.834000       15.9994           0
     37639 TIP3     5110     TIP3     H1       HT       0.417000       1.00800           0
     37640 TIP3     5110     TIP3     H2       HT       0.417000       1.00800           0
     37641 TIP3     5111     TIP3     OH2      OT      -0.834000       15.9994           0
     37642 TIP3     5111     TIP3     H1       HT       0.417000       1.00800           0
     37643 TIP3     5111     TIP3     H2       HT       0.417000       1.00800           0
     37644 TIP3     5112     TIP3     OH2      OT      -0.834000       15.9994           0
     37645 TIP3     5112     TIP3     H1       HT       0.417000       1.00800           0
     37646 TIP3     5112     TIP3     H2       HT       0.417000       1.00800           0
     37647 TIP3     5113     TIP3     OH2      OT      -0.834000       15.9994           0
     37648 TIP3     5113     TIP3     H1       HT       0.417000       1.00800           0
     37649 TIP3     5113     TIP3     H2       HT       0.417000       1.00800           0
     37650 TIP3     5114     TIP3     OH2      OT      -0.834000       15.9994           0
     37651 TIP3     5114     TIP3     H1       HT       0.417000       1.00800           0
     37652 TIP3     5114     TIP3     H2       HT       0.417000       1.00800           0
     37653 TIP3     5115     TIP3     OH2      OT      -0.834000       15.9994           0
     37654 TIP3     5115     TIP3     H1       HT       0.417000       1.00800           0
     37655 TIP3     5115     TIP3     H2       HT       0.417000       1.00800           0
     37656 TIP3     5116     TIP3     OH2      OT      -0.834000       15.9994           0
     37657 TIP3     5116     TIP3     H1       HT       0.417000       1.00800           0
     37658 TIP3     5116     TIP3     H2       HT       0.417000       1.00800           0
     37659 TIP3     5117     TIP3     OH2      OT      -0.834000       15.9994           0
     37660 TIP3     5117     TIP3     H1       HT       0.417000       1.00800           0
     37661 TIP3     5117     TIP3     H2       HT       0.417000       1.00800           0
     37662 TIP3     5118     TIP3     OH2      OT      -0.834000       15.9994           0
     37663 TIP3     5118     TIP3     H1       HT       0.417000       1.00800           0
     37664 TIP3     5118     TIP3     H2       HT       0.417000       1.00800           0
     37665 TIP3     5119     TIP3     OH2      OT      -0.834000       15.9994           0
     37666 TIP3     5119     TIP3     H1       HT       0.417000       1.00800           0
     37667 TIP3     5119     TIP3     H2       HT       0.417000       1.00800           0
     37668 TIP3     5120     TIP3     OH2      OT      -0.834000       15.9994           0
     37669 TIP3     5120     TIP3     H1       HT       0.417000       1.00800           0
     37670 TIP3     5120     TIP3     H2       HT       0.417000       1.00800           0
     37671 TIP3     5121     TIP3     OH2      OT      -0.834000       15.9994           0
     37672 TIP3     5121     TIP3     H1       HT       0.417000       1.00800           0
     37673 TIP3     5121     TIP3     H2       HT       0.417000       1.00800           0
     37674 TIP3     5122     TIP3     OH2      OT      -0.834000       15.9994           0
     37675 TIP3     5122     TIP3     H1       HT       0.417000       1.00800           0
     37676 TIP3     5122     TIP3     H2       HT       0.417000       1.00800           0
     37677 TIP3     5123     TIP3     OH2      OT      -0.834000       15.9994           0
     37678 TIP3     5123     TIP3     H1       HT       0.417000       1.00800           0
     37679 TIP3     5123     TIP3     H2       HT       0.417000       1.00800           0
     37680 TIP3     5124     TIP3     OH2      OT      -0.834000       15.9994           0
     37681 TIP3     5124     TIP3     H1       HT       0.417000       1.00800           0
     37682 TIP3     5124     TIP3     H2       HT       0.417000       1.00800           0
     37683 TIP3     5125     TIP3     OH2      OT      -0.834000       15.9994           0
     37684 TIP3     5125     TIP3     H1       HT       0.417000       1.00800           0
     37685 TIP3     5125     TIP3     H2       HT       0.417000       1.00800           0
     37686 TIP3     5126     TIP3     OH2      OT      -0.834000       15.9994           0
     37687 TIP3     5126     TIP3     H1       HT       0.417000       1.00800           0
     37688 TIP3     5126     TIP3     H2       HT       0.417000       1.00800           0
     37689 TIP3     5127     TIP3     OH2      OT      -0.834000       15.9994           0
     37690 TIP3     5127     TIP3     H1       HT       0.417000       1.00800           0
     37691 TIP3     5127     TIP3     H2       HT       0.417000       1.00800           0
     37692 TIP3     5128     TIP3     OH2      OT      -0.834000       15.9994           0
     37693 TIP3     5128     TIP3     H1       HT       0.417000       1.00800           0
     37694 TIP3     5128     TIP3     H2       HT       0.417000       1.00800           0
     37695 TIP3     5129     TIP3     OH2      OT      -0.834000       15.9994           0
     37696 TIP3     5129     TIP3     H1       HT       0.417000       1.00800           0
     37697 TIP3     5129     TIP3     H2       HT       0.417000       1.00800           0
     37698 TIP3     5130     TIP3     OH2      OT      -0.834000       15.9994           0
     37699 TIP3     5130     TIP3     H1       HT       0.417000       1.00800           0
     37700 TIP3     5130     TIP3     H2       HT       0.417000       1.00800           0
     37701 TIP3     5131     TIP3     OH2      OT      -0.834000       15.9994           0
     37702 TIP3     5131     TIP3     H1       HT       0.417000       1.00800           0
     37703 TIP3     5131     TIP3     H2       HT       0.417000       1.00800           0
     37704 TIP3     5132     TIP3     OH2      OT      -0.834000       15.9994           0
     37705 TIP3     5132     TIP3     H1       HT       0.417000       1.00800           0
     37706 TIP3     5132     TIP3     H2       HT       0.417000       1.00800           0
     37707 TIP3     5133     TIP3     OH2      OT      -0.834000       15.9994           0
     37708 TIP3     5133     TIP3     H1       HT       0.417000       1.00800           0
     37709 TIP3     5133     TIP3     H2       HT       0.417000       1.00800           0
     37710 TIP3     5134     TIP3     OH2      OT      -0.834000       15.9994           0
     37711 TIP3     5134     TIP3     H1       HT       0.417000       1.00800           0
     37712 TIP3     5134     TIP3     H2       HT       0.417000       1.00800           0
     37713 TIP3     5135     TIP3     OH2      OT      -0.834000       15.9994           0
     37714 TIP3     5135     TIP3     H1       HT       0.417000       1.00800           0
     37715 TIP3     5135     TIP3     H2       HT       0.417000       1.00800           0
     37716 TIP3     5136     TIP3     OH2      OT      -0.834000       15.9994           0
     37717 TIP3     5136     TIP3     H1       HT       0.417000       1.00800           0
     37718 TIP3     5136     TIP3     H2       HT       0.417000       1.00800           0
     37719 TIP3     5137     TIP3     OH2      OT      -0.834000       15.9994           0
     37720 TIP3     5137     TIP3     H1       HT       0.417000       1.00800           0
     37721 TIP3     5137     TIP3     H2       HT       0.417000       1.00800           0
     37722 TIP3     5138     TIP3     OH2      OT      -0.834000       15.9994           0
     37723 TIP3     5138     TIP3     H1       HT       0.417000       1.00800           0
     37724 TIP3     5138     TIP3     H2       HT       0.417000       1.00800           0
     37725 TIP3     5139     TIP3     OH2      OT      -0.834000       15.9994           0
     37726 TIP3     5139     TIP3     H1       HT       0.417000       1.00800           0
     37727 TIP3     5139     TIP3     H2       HT       0.417000       1.00800           0
     37728 TIP3     5140     TIP3     OH2      OT      -0.834000       15.9994           0
     37729 TIP3     5140     TIP3     H1       HT       0.417000       1.00800           0
     37730 TIP3     5140     TIP3     H2       HT       0.417000       1.00800           0
     37731 TIP3     5141     TIP3     OH2      OT      -0.834000       15.9994           0
     37732 TIP3     5141     TIP3     H1       HT       0.417000       1.00800           0
     37733 TIP3     5141     TIP3     H2       HT       0.417000       1.00800           0
     37734 TIP3     5142     TIP3     OH2      OT      -0.834000       15.9994           0
     37735 TIP3     5142     TIP3     H1       HT       0.417000       1.00800           0
     37736 TIP3     5142     TIP3     H2       HT       0.417000       1.00800           0
     37737 TIP3     5143     TIP3     OH2      OT      -0.834000       15.9994           0
     37738 TIP3     5143     TIP3     H1       HT       0.417000       1.00800           0
     37739 TIP3     5143     TIP3     H2       HT       0.417000       1.00800           0
     37740 TIP3     5144     TIP3     OH2      OT      -0.834000       15.9994           0
     37741 TIP3     5144     TIP3     H1       HT       0.417000       1.00800           0
     37742 TIP3     5144     TIP3     H2       HT       0.417000       1.00800           0
     37743 TIP3     5145     TIP3     OH2      OT      -0.834000       15.9994           0
     37744 TIP3     5145     TIP3     H1       HT       0.417000       1.00800           0
     37745 TIP3     5145     TIP3     H2       HT       0.417000       1.00800           0
     37746 TIP3     5146     TIP3     OH2      OT      -0.834000       15.9994           0
     37747 TIP3     5146     TIP3     H1       HT       0.417000       1.00800           0
     37748 TIP3     5146     TIP3     H2       HT       0.417000       1.00800           0
     37749 TIP3     5147     TIP3     OH2      OT      -0.834000       15.9994           0
     37750 TIP3     5147     TIP3     H1       HT       0.417000       1.00800           0
     37751 TIP3     5147     TIP3     H2       HT       0.417000       1.00800           0
     37752 TIP3     5148     TIP3     OH2      OT      -0.834000       15.9994           0
     37753 TIP3     5148     TIP3     H1       HT       0.417000       1.00800           0
     37754 TIP3     5148     TIP3     H2       HT       0.417000       1.00800           0
     37755 TIP3     5149     TIP3     OH2      OT      -0.834000       15.9994           0
     37756 TIP3     5149     TIP3     H1       HT       0.417000       1.00800           0
     37757 TIP3     5149     TIP3     H2       HT       0.417000       1.00800           0
     37758 TIP3     5150     TIP3     OH2      OT      -0.834000       15.9994           0
     37759 TIP3     5150     TIP3     H1       HT       0.417000       1.00800           0
     37760 TIP3     5150     TIP3     H2       HT       0.417000       1.00800           0
     37761 TIP3     5151     TIP3     OH2      OT      -0.834000       15.9994           0
     37762 TIP3     5151     TIP3     H1       HT       0.417000       1.00800           0
     37763 TIP3     5151     TIP3     H2       HT       0.417000       1.00800           0
     37764 TIP3     5152     TIP3     OH2      OT      -0.834000       15.9994           0
     37765 TIP3     5152     TIP3     H1       HT       0.417000       1.00800           0
     37766 TIP3     5152     TIP3     H2       HT       0.417000       1.00800           0
     37767 TIP3     5153     TIP3     OH2      OT      -0.834000       15.9994           0
     37768 TIP3     5153     TIP3     H1       HT       0.417000       1.00800           0
     37769 TIP3     5153     TIP3     H2       HT       0.417000       1.00800           0
     37770 TIP3     5154     TIP3     OH2      OT      -0.834000       15.9994           0
     37771 TIP3     5154     TIP3     H1       HT       0.417000       1.00800           0
     37772 TIP3     5154     TIP3     H2       HT       0.417000       1.00800           0
     37773 TIP3     5155     TIP3     OH2      OT      -0.834000       15.9994           0
     37774 TIP3     5155     TIP3     H1       HT       0.417000       1.00800           0
     37775 TIP3     5155     TIP3     H2       HT       0.417000       1.00800           0
     37776 TIP3     5156     TIP3     OH2      OT      -0.834000       15.9994           0
     37777 TIP3     5156     TIP3     H1       HT       0.417000       1.00800           0
     37778 TIP3     5156     TIP3     H2       HT       0.417000       1.00800           0
     37779 TIP3     5157     TIP3     OH2      OT      -0.834000       15.9994           0
     37780 TIP3     5157     TIP3     H1       HT       0.417000       1.00800           0
     37781 TIP3     5157     TIP3     H2       HT       0.417000       1.00800           0
     37782 TIP3     5158     TIP3     OH2      OT      -0.834000       15.9994           0
     37783 TIP3     5158     TIP3     H1       HT       0.417000       1.00800           0
     37784 TIP3     5158     TIP3     H2       HT       0.417000       1.00800           0
     37785 TIP3     5159     TIP3     OH2      OT      -0.834000       15.9994           0
     37786 TIP3     5159     TIP3     H1       HT       0.417000       1.00800           0
     37787 TIP3     5159     TIP3     H2       HT       0.417000       1.00800           0
     37788 TIP3     5160     TIP3     OH2      OT      -0.834000       15.9994           0
     37789 TIP3     5160     TIP3     H1       HT       0.417000       1.00800           0
     37790 TIP3     5160     TIP3     H2       HT       0.417000       1.00800           0
     37791 TIP3     5161     TIP3     OH2      OT      -0.834000       15.9994           0
     37792 TIP3     5161     TIP3     H1       HT       0.417000       1.00800           0
     37793 TIP3     5161     TIP3     H2       HT       0.417000       1.00800           0
     37794 TIP3     5162     TIP3     OH2      OT      -0.834000       15.9994           0
     37795 TIP3     5162     TIP3     H1       HT       0.417000       1.00800           0
     37796 TIP3     5162     TIP3     H2       HT       0.417000       1.00800           0
     37797 TIP3     5163     TIP3     OH2      OT      -0.834000       15.9994           0
     37798 TIP3     5163     TIP3     H1       HT       0.417000       1.00800           0
     37799 TIP3     5163     TIP3     H2       HT       0.417000       1.00800           0
     37800 TIP3     5164     TIP3     OH2      OT      -0.834000       15.9994           0
     37801 TIP3     5164     TIP3     H1       HT       0.417000       1.00800           0
     37802 TIP3     5164     TIP3     H2       HT       0.417000       1.00800           0
     37803 TIP3     5165     TIP3     OH2      OT      -0.834000       15.9994           0
     37804 TIP3     5165     TIP3     H1       HT       0.417000       1.00800           0
     37805 TIP3     5165     TIP3     H2       HT       0.417000       1.00800           0
     37806 TIP3     5166     TIP3     OH2      OT      -0.834000       15.9994           0
     37807 TIP3     5166     TIP3     H1       HT       0.417000       1.00800           0
     37808 TIP3     5166     TIP3     H2       HT       0.417000       1.00800           0
     37809 TIP3     5167     TIP3     OH2      OT      -0.834000       15.9994           0
     37810 TIP3     5167     TIP3     H1       HT       0.417000       1.00800           0
     37811 TIP3     5167     TIP3     H2       HT       0.417000       1.00800           0
     37812 TIP3     5168     TIP3     OH2      OT      -0.834000       15.9994           0
     37813 TIP3     5168     TIP3     H1       HT       0.417000       1.00800           0
     37814 TIP3     5168     TIP3     H2       HT       0.417000       1.00800           0
     37815 TIP3     5169     TIP3     OH2      OT      -0.834000       15.9994           0
     37816 TIP3     5169     TIP3     H1       HT       0.417000       1.00800           0
     37817 TIP3     5169     TIP3     H2       HT       0.417000       1.00800           0
     37818 TIP3     5170     TIP3     OH2      OT      -0.834000       15.9994           0
     37819 TIP3     5170     TIP3     H1       HT       0.417000       1.00800           0
     37820 TIP3     5170     TIP3     H2       HT       0.417000       1.00800           0
     37821 TIP3     5171     TIP3     OH2      OT      -0.834000       15.9994           0
     37822 TIP3     5171     TIP3     H1       HT       0.417000       1.00800           0
     37823 TIP3     5171     TIP3     H2       HT       0.417000       1.00800           0
     37824 TIP3     5172     TIP3     OH2      OT      -0.834000       15.9994           0
     37825 TIP3     5172     TIP3     H1       HT       0.417000       1.00800           0
     37826 TIP3     5172     TIP3     H2       HT       0.417000       1.00800           0
     37827 TIP3     5173     TIP3     OH2      OT      -0.834000       15.9994           0
     37828 TIP3     5173     TIP3     H1       HT       0.417000       1.00800           0
     37829 TIP3     5173     TIP3     H2       HT       0.417000       1.00800           0
     37830 TIP3     5174     TIP3     OH2      OT      -0.834000       15.9994           0
     37831 TIP3     5174     TIP3     H1       HT       0.417000       1.00800           0
     37832 TIP3     5174     TIP3     H2       HT       0.417000       1.00800           0
     37833 TIP3     5175     TIP3     OH2      OT      -0.834000       15.9994           0
     37834 TIP3     5175     TIP3     H1       HT       0.417000       1.00800           0
     37835 TIP3     5175     TIP3     H2       HT       0.417000       1.00800           0
     37836 TIP3     5176     TIP3     OH2      OT      -0.834000       15.9994           0
     37837 TIP3     5176     TIP3     H1       HT       0.417000       1.00800           0
     37838 TIP3     5176     TIP3     H2       HT       0.417000       1.00800           0
     37839 TIP3     5177     TIP3     OH2      OT      -0.834000       15.9994           0
     37840 TIP3     5177     TIP3     H1       HT       0.417000       1.00800           0
     37841 TIP3     5177     TIP3     H2       HT       0.417000       1.00800           0
     37842 TIP3     5178     TIP3     OH2      OT      -0.834000       15.9994           0
     37843 TIP3     5178     TIP3     H1       HT       0.417000       1.00800           0
     37844 TIP3     5178     TIP3     H2       HT       0.417000       1.00800           0
     37845 TIP3     5179     TIP3     OH2      OT      -0.834000       15.9994           0
     37846 TIP3     5179     TIP3     H1       HT       0.417000       1.00800           0
     37847 TIP3     5179     TIP3     H2       HT       0.417000       1.00800           0
     37848 TIP3     5180     TIP3     OH2      OT      -0.834000       15.9994           0
     37849 TIP3     5180     TIP3     H1       HT       0.417000       1.00800           0
     37850 TIP3     5180     TIP3     H2       HT       0.417000       1.00800           0
     37851 TIP3     5181     TIP3     OH2      OT      -0.834000       15.9994           0
     37852 TIP3     5181     TIP3     H1       HT       0.417000       1.00800           0
     37853 TIP3     5181     TIP3     H2       HT       0.417000       1.00800           0
     37854 TIP3     5182     TIP3     OH2      OT      -0.834000       15.9994           0
     37855 TIP3     5182     TIP3     H1       HT       0.417000       1.00800           0
     37856 TIP3     5182     TIP3     H2       HT       0.417000       1.00800           0
     37857 TIP3     5183     TIP3     OH2      OT      -0.834000       15.9994           0
     37858 TIP3     5183     TIP3     H1       HT       0.417000       1.00800           0
     37859 TIP3     5183     TIP3     H2       HT       0.417000       1.00800           0
     37860 TIP3     5184     TIP3     OH2      OT      -0.834000       15.9994           0
     37861 TIP3     5184     TIP3     H1       HT       0.417000       1.00800           0
     37862 TIP3     5184     TIP3     H2       HT       0.417000       1.00800           0
     37863 TIP3     5185     TIP3     OH2      OT      -0.834000       15.9994           0
     37864 TIP3     5185     TIP3     H1       HT       0.417000       1.00800           0
     37865 TIP3     5185     TIP3     H2       HT       0.417000       1.00800           0
     37866 TIP3     5186     TIP3     OH2      OT      -0.834000       15.9994           0
     37867 TIP3     5186     TIP3     H1       HT       0.417000       1.00800           0
     37868 TIP3     5186     TIP3     H2       HT       0.417000       1.00800           0
     37869 TIP3     5187     TIP3     OH2      OT      -0.834000       15.9994           0
     37870 TIP3     5187     TIP3     H1       HT       0.417000       1.00800           0
     37871 TIP3     5187     TIP3     H2       HT       0.417000       1.00800           0
     37872 TIP3     5188     TIP3     OH2      OT      -0.834000       15.9994           0
     37873 TIP3     5188     TIP3     H1       HT       0.417000       1.00800           0
     37874 TIP3     5188     TIP3     H2       HT       0.417000       1.00800           0
     37875 TIP3     5189     TIP3     OH2      OT      -0.834000       15.9994           0
     37876 TIP3     5189     TIP3     H1       HT       0.417000       1.00800           0
     37877 TIP3     5189     TIP3     H2       HT       0.417000       1.00800           0
     37878 TIP3     5190     TIP3     OH2      OT      -0.834000       15.9994           0
     37879 TIP3     5190     TIP3     H1       HT       0.417000       1.00800           0
     37880 TIP3     5190     TIP3     H2       HT       0.417000       1.00800           0
     37881 TIP3     5191     TIP3     OH2      OT      -0.834000       15.9994           0
     37882 TIP3     5191     TIP3     H1       HT       0.417000       1.00800           0
     37883 TIP3     5191     TIP3     H2       HT       0.417000       1.00800           0
     37884 TIP3     5192     TIP3     OH2      OT      -0.834000       15.9994           0
     37885 TIP3     5192     TIP3     H1       HT       0.417000       1.00800           0
     37886 TIP3     5192     TIP3     H2       HT       0.417000       1.00800           0
     37887 TIP3     5193     TIP3     OH2      OT      -0.834000       15.9994           0
     37888 TIP3     5193     TIP3     H1       HT       0.417000       1.00800           0
     37889 TIP3     5193     TIP3     H2       HT       0.417000       1.00800           0
     37890 TIP3     5194     TIP3     OH2      OT      -0.834000       15.9994           0
     37891 TIP3     5194     TIP3     H1       HT       0.417000       1.00800           0
     37892 TIP3     5194     TIP3     H2       HT       0.417000       1.00800           0
     37893 TIP3     5195     TIP3     OH2      OT      -0.834000       15.9994           0
     37894 TIP3     5195     TIP3     H1       HT       0.417000       1.00800           0
     37895 TIP3     5195     TIP3     H2       HT       0.417000       1.00800           0
     37896 TIP3     5196     TIP3     OH2      OT      -0.834000       15.9994           0
     37897 TIP3     5196     TIP3     H1       HT       0.417000       1.00800           0
     37898 TIP3     5196     TIP3     H2       HT       0.417000       1.00800           0
     37899 TIP3     5197     TIP3     OH2      OT      -0.834000       15.9994           0
     37900 TIP3     5197     TIP3     H1       HT       0.417000       1.00800           0
     37901 TIP3     5197     TIP3     H2       HT       0.417000       1.00800           0
     37902 TIP3     5198     TIP3     OH2      OT      -0.834000       15.9994           0
     37903 TIP3     5198     TIP3     H1       HT       0.417000       1.00800           0
     37904 TIP3     5198     TIP3     H2       HT       0.417000       1.00800           0
     37905 TIP3     5199     TIP3     OH2      OT      -0.834000       15.9994           0
     37906 TIP3     5199     TIP3     H1       HT       0.417000       1.00800           0
     37907 TIP3     5199     TIP3     H2       HT       0.417000       1.00800           0
     37908 TIP3     5200     TIP3     OH2      OT      -0.834000       15.9994           0
     37909 TIP3     5200     TIP3     H1       HT       0.417000       1.00800           0
     37910 TIP3     5200     TIP3     H2       HT       0.417000       1.00800           0
     37911 TIP3     5201     TIP3     OH2      OT      -0.834000       15.9994           0
     37912 TIP3     5201     TIP3     H1       HT       0.417000       1.00800           0
     37913 TIP3     5201     TIP3     H2       HT       0.417000       1.00800           0
     37914 TIP3     5202     TIP3     OH2      OT      -0.834000       15.9994           0
     37915 TIP3     5202     TIP3     H1       HT       0.417000       1.00800           0
     37916 TIP3     5202     TIP3     H2       HT       0.417000       1.00800           0
     37917 TIP3     5203     TIP3     OH2      OT      -0.834000       15.9994           0
     37918 TIP3     5203     TIP3     H1       HT       0.417000       1.00800           0
     37919 TIP3     5203     TIP3     H2       HT       0.417000       1.00800           0
     37920 TIP3     5204     TIP3     OH2      OT      -0.834000       15.9994           0
     37921 TIP3     5204     TIP3     H1       HT       0.417000       1.00800           0
     37922 TIP3     5204     TIP3     H2       HT       0.417000       1.00800           0
     37923 TIP3     5205     TIP3     OH2      OT      -0.834000       15.9994           0
     37924 TIP3     5205     TIP3     H1       HT       0.417000       1.00800           0
     37925 TIP3     5205     TIP3     H2       HT       0.417000       1.00800           0
     37926 TIP3     5206     TIP3     OH2      OT      -0.834000       15.9994           0
     37927 TIP3     5206     TIP3     H1       HT       0.417000       1.00800           0
     37928 TIP3     5206     TIP3     H2       HT       0.417000       1.00800           0
     37929 TIP3     5207     TIP3     OH2      OT      -0.834000       15.9994           0
     37930 TIP3     5207     TIP3     H1       HT       0.417000       1.00800           0
     37931 TIP3     5207     TIP3     H2       HT       0.417000       1.00800           0
     37932 TIP3     5208     TIP3     OH2      OT      -0.834000       15.9994           0
     37933 TIP3     5208     TIP3     H1       HT       0.417000       1.00800           0
     37934 TIP3     5208     TIP3     H2       HT       0.417000       1.00800           0
     37935 TIP3     5209     TIP3     OH2      OT      -0.834000       15.9994           0
     37936 TIP3     5209     TIP3     H1       HT       0.417000       1.00800           0
     37937 TIP3     5209     TIP3     H2       HT       0.417000       1.00800           0
     37938 TIP3     5210     TIP3     OH2      OT      -0.834000       15.9994           0
     37939 TIP3     5210     TIP3     H1       HT       0.417000       1.00800           0
     37940 TIP3     5210     TIP3     H2       HT       0.417000       1.00800           0
     37941 TIP3     5211     TIP3     OH2      OT      -0.834000       15.9994           0
     37942 TIP3     5211     TIP3     H1       HT       0.417000       1.00800           0
     37943 TIP3     5211     TIP3     H2       HT       0.417000       1.00800           0
     37944 TIP3     5212     TIP3     OH2      OT      -0.834000       15.9994           0
     37945 TIP3     5212     TIP3     H1       HT       0.417000       1.00800           0
     37946 TIP3     5212     TIP3     H2       HT       0.417000       1.00800           0
     37947 TIP3     5213     TIP3     OH2      OT      -0.834000       15.9994           0
     37948 TIP3     5213     TIP3     H1       HT       0.417000       1.00800           0
     37949 TIP3     5213     TIP3     H2       HT       0.417000       1.00800           0
     37950 TIP3     5214     TIP3     OH2      OT      -0.834000       15.9994           0
     37951 TIP3     5214     TIP3     H1       HT       0.417000       1.00800           0
     37952 TIP3     5214     TIP3     H2       HT       0.417000       1.00800           0
     37953 TIP3     5215     TIP3     OH2      OT      -0.834000       15.9994           0
     37954 TIP3     5215     TIP3     H1       HT       0.417000       1.00800           0
     37955 TIP3     5215     TIP3     H2       HT       0.417000       1.00800           0
     37956 TIP3     5216     TIP3     OH2      OT      -0.834000       15.9994           0
     37957 TIP3     5216     TIP3     H1       HT       0.417000       1.00800           0
     37958 TIP3     5216     TIP3     H2       HT       0.417000       1.00800           0
     37959 TIP3     5217     TIP3     OH2      OT      -0.834000       15.9994           0
     37960 TIP3     5217     TIP3     H1       HT       0.417000       1.00800           0
     37961 TIP3     5217     TIP3     H2       HT       0.417000       1.00800           0
     37962 TIP3     5218     TIP3     OH2      OT      -0.834000       15.9994           0
     37963 TIP3     5218     TIP3     H1       HT       0.417000       1.00800           0
     37964 TIP3     5218     TIP3     H2       HT       0.417000       1.00800           0
     37965 TIP3     5219     TIP3     OH2      OT      -0.834000       15.9994           0
     37966 TIP3     5219     TIP3     H1       HT       0.417000       1.00800           0
     37967 TIP3     5219     TIP3     H2       HT       0.417000       1.00800           0
     37968 TIP3     5220     TIP3     OH2      OT      -0.834000       15.9994           0
     37969 TIP3     5220     TIP3     H1       HT       0.417000       1.00800           0
     37970 TIP3     5220     TIP3     H2       HT       0.417000       1.00800           0
     37971 TIP3     5221     TIP3     OH2      OT      -0.834000       15.9994           0
     37972 TIP3     5221     TIP3     H1       HT       0.417000       1.00800           0
     37973 TIP3     5221     TIP3     H2       HT       0.417000       1.00800           0
     37974 TIP3     5222     TIP3     OH2      OT      -0.834000       15.9994           0
     37975 TIP3     5222     TIP3     H1       HT       0.417000       1.00800           0
     37976 TIP3     5222     TIP3     H2       HT       0.417000       1.00800           0
     37977 TIP3     5223     TIP3     OH2      OT      -0.834000       15.9994           0
     37978 TIP3     5223     TIP3     H1       HT       0.417000       1.00800           0
     37979 TIP3     5223     TIP3     H2       HT       0.417000       1.00800           0
     37980 TIP3     5224     TIP3     OH2      OT      -0.834000       15.9994           0
     37981 TIP3     5224     TIP3     H1       HT       0.417000       1.00800           0
     37982 TIP3     5224     TIP3     H2       HT       0.417000       1.00800           0
     37983 TIP3     5225     TIP3     OH2      OT      -0.834000       15.9994           0
     37984 TIP3     5225     TIP3     H1       HT       0.417000       1.00800           0
     37985 TIP3     5225     TIP3     H2       HT       0.417000       1.00800           0
     37986 TIP3     5226     TIP3     OH2      OT      -0.834000       15.9994           0
     37987 TIP3     5226     TIP3     H1       HT       0.417000       1.00800           0
     37988 TIP3     5226     TIP3     H2       HT       0.417000       1.00800           0
     37989 TIP3     5227     TIP3     OH2      OT      -0.834000       15.9994           0
     37990 TIP3     5227     TIP3     H1       HT       0.417000       1.00800           0
     37991 TIP3     5227     TIP3     H2       HT       0.417000       1.00800           0
     37992 TIP3     5228     TIP3     OH2      OT      -0.834000       15.9994           0
     37993 TIP3     5228     TIP3     H1       HT       0.417000       1.00800           0
     37994 TIP3     5228     TIP3     H2       HT       0.417000       1.00800           0
     37995 TIP3     5229     TIP3     OH2      OT      -0.834000       15.9994           0
     37996 TIP3     5229     TIP3     H1       HT       0.417000       1.00800           0
     37997 TIP3     5229     TIP3     H2       HT       0.417000       1.00800           0
     37998 TIP3     5230     TIP3     OH2      OT      -0.834000       15.9994           0
     37999 TIP3     5230     TIP3     H1       HT       0.417000       1.00800           0
     38000 TIP3     5230     TIP3     H2       HT       0.417000       1.00800           0
     38001 TIP3     5231     TIP3     OH2      OT      -0.834000       15.9994           0
     38002 TIP3     5231     TIP3     H1       HT       0.417000       1.00800           0
     38003 TIP3     5231     TIP3     H2       HT       0.417000       1.00800           0
     38004 TIP3     5232     TIP3     OH2      OT      -0.834000       15.9994           0
     38005 TIP3     5232     TIP3     H1       HT       0.417000       1.00800           0
     38006 TIP3     5232     TIP3     H2       HT       0.417000       1.00800           0
     38007 TIP3     5233     TIP3     OH2      OT      -0.834000       15.9994           0
     38008 TIP3     5233     TIP3     H1       HT       0.417000       1.00800           0
     38009 TIP3     5233     TIP3     H2       HT       0.417000       1.00800           0
     38010 TIP3     5234     TIP3     OH2      OT      -0.834000       15.9994           0
     38011 TIP3     5234     TIP3     H1       HT       0.417000       1.00800           0
     38012 TIP3     5234     TIP3     H2       HT       0.417000       1.00800           0
     38013 TIP3     5235     TIP3     OH2      OT      -0.834000       15.9994           0
     38014 TIP3     5235     TIP3     H1       HT       0.417000       1.00800           0
     38015 TIP3     5235     TIP3     H2       HT       0.417000       1.00800           0
     38016 TIP3     5236     TIP3     OH2      OT      -0.834000       15.9994           0
     38017 TIP3     5236     TIP3     H1       HT       0.417000       1.00800           0
     38018 TIP3     5236     TIP3     H2       HT       0.417000       1.00800           0
     38019 TIP3     5237     TIP3     OH2      OT      -0.834000       15.9994           0
     38020 TIP3     5237     TIP3     H1       HT       0.417000       1.00800           0
     38021 TIP3     5237     TIP3     H2       HT       0.417000       1.00800           0
     38022 TIP3     5238     TIP3     OH2      OT      -0.834000       15.9994           0
     38023 TIP3     5238     TIP3     H1       HT       0.417000       1.00800           0
     38024 TIP3     5238     TIP3     H2       HT       0.417000       1.00800           0
     38025 TIP3     5239     TIP3     OH2      OT      -0.834000       15.9994           0
     38026 TIP3     5239     TIP3     H1       HT       0.417000       1.00800           0
     38027 TIP3     5239     TIP3     H2       HT       0.417000       1.00800           0
     38028 TIP3     5240     TIP3     OH2      OT      -0.834000       15.9994           0
     38029 TIP3     5240     TIP3     H1       HT       0.417000       1.00800           0
     38030 TIP3     5240     TIP3     H2       HT       0.417000       1.00800           0
     38031 TIP3     5241     TIP3     OH2      OT      -0.834000       15.9994           0
     38032 TIP3     5241     TIP3     H1       HT       0.417000       1.00800           0
     38033 TIP3     5241     TIP3     H2       HT       0.417000       1.00800           0
     38034 TIP3     5242     TIP3     OH2      OT      -0.834000       15.9994           0
     38035 TIP3     5242     TIP3     H1       HT       0.417000       1.00800           0
     38036 TIP3     5242     TIP3     H2       HT       0.417000       1.00800           0
     38037 TIP3     5243     TIP3     OH2      OT      -0.834000       15.9994           0
     38038 TIP3     5243     TIP3     H1       HT       0.417000       1.00800           0
     38039 TIP3     5243     TIP3     H2       HT       0.417000       1.00800           0
     38040 TIP3     5244     TIP3     OH2      OT      -0.834000       15.9994           0
     38041 TIP3     5244     TIP3     H1       HT       0.417000       1.00800           0
     38042 TIP3     5244     TIP3     H2       HT       0.417000       1.00800           0
     38043 TIP3     5245     TIP3     OH2      OT      -0.834000       15.9994           0
     38044 TIP3     5245     TIP3     H1       HT       0.417000       1.00800           0
     38045 TIP3     5245     TIP3     H2       HT       0.417000       1.00800           0
     38046 TIP3     5246     TIP3     OH2      OT      -0.834000       15.9994           0
     38047 TIP3     5246     TIP3     H1       HT       0.417000       1.00800           0
     38048 TIP3     5246     TIP3     H2       HT       0.417000       1.00800           0
     38049 TIP3     5247     TIP3     OH2      OT      -0.834000       15.9994           0
     38050 TIP3     5247     TIP3     H1       HT       0.417000       1.00800           0
     38051 TIP3     5247     TIP3     H2       HT       0.417000       1.00800           0
     38052 TIP3     5248     TIP3     OH2      OT      -0.834000       15.9994           0
     38053 TIP3     5248     TIP3     H1       HT       0.417000       1.00800           0
     38054 TIP3     5248     TIP3     H2       HT       0.417000       1.00800           0
     38055 TIP3     5249     TIP3     OH2      OT      -0.834000       15.9994           0
     38056 TIP3     5249     TIP3     H1       HT       0.417000       1.00800           0
     38057 TIP3     5249     TIP3     H2       HT       0.417000       1.00800           0
     38058 TIP3     5250     TIP3     OH2      OT      -0.834000       15.9994           0
     38059 TIP3     5250     TIP3     H1       HT       0.417000       1.00800           0
     38060 TIP3     5250     TIP3     H2       HT       0.417000       1.00800           0
     38061 TIP3     5251     TIP3     OH2      OT      -0.834000       15.9994           0
     38062 TIP3     5251     TIP3     H1       HT       0.417000       1.00800           0
     38063 TIP3     5251     TIP3     H2       HT       0.417000       1.00800           0
     38064 TIP3     5252     TIP3     OH2      OT      -0.834000       15.9994           0
     38065 TIP3     5252     TIP3     H1       HT       0.417000       1.00800           0
     38066 TIP3     5252     TIP3     H2       HT       0.417000       1.00800           0
     38067 TIP3     5253     TIP3     OH2      OT      -0.834000       15.9994           0
     38068 TIP3     5253     TIP3     H1       HT       0.417000       1.00800           0
     38069 TIP3     5253     TIP3     H2       HT       0.417000       1.00800           0
     38070 TIP3     5254     TIP3     OH2      OT      -0.834000       15.9994           0
     38071 TIP3     5254     TIP3     H1       HT       0.417000       1.00800           0
     38072 TIP3     5254     TIP3     H2       HT       0.417000       1.00800           0
     38073 TIP3     5255     TIP3     OH2      OT      -0.834000       15.9994           0
     38074 TIP3     5255     TIP3     H1       HT       0.417000       1.00800           0
     38075 TIP3     5255     TIP3     H2       HT       0.417000       1.00800           0
     38076 TIP3     5256     TIP3     OH2      OT      -0.834000       15.9994           0
     38077 TIP3     5256     TIP3     H1       HT       0.417000       1.00800           0
     38078 TIP3     5256     TIP3     H2       HT       0.417000       1.00800           0
     38079 TIP3     5257     TIP3     OH2      OT      -0.834000       15.9994           0
     38080 TIP3     5257     TIP3     H1       HT       0.417000       1.00800           0
     38081 TIP3     5257     TIP3     H2       HT       0.417000       1.00800           0
     38082 TIP3     5258     TIP3     OH2      OT      -0.834000       15.9994           0
     38083 TIP3     5258     TIP3     H1       HT       0.417000       1.00800           0
     38084 TIP3     5258     TIP3     H2       HT       0.417000       1.00800           0
     38085 TIP3     5259     TIP3     OH2      OT      -0.834000       15.9994           0
     38086 TIP3     5259     TIP3     H1       HT       0.417000       1.00800           0
     38087 TIP3     5259     TIP3     H2       HT       0.417000       1.00800           0
     38088 TIP3     5260     TIP3     OH2      OT      -0.834000       15.9994           0
     38089 TIP3     5260     TIP3     H1       HT       0.417000       1.00800           0
     38090 TIP3     5260     TIP3     H2       HT       0.417000       1.00800           0
     38091 TIP3     5261     TIP3     OH2      OT      -0.834000       15.9994           0
     38092 TIP3     5261     TIP3     H1       HT       0.417000       1.00800           0
     38093 TIP3     5261     TIP3     H2       HT       0.417000       1.00800           0
     38094 TIP3     5262     TIP3     OH2      OT      -0.834000       15.9994           0
     38095 TIP3     5262     TIP3     H1       HT       0.417000       1.00800           0
     38096 TIP3     5262     TIP3     H2       HT       0.417000       1.00800           0
     38097 TIP3     5263     TIP3     OH2      OT      -0.834000       15.9994           0
     38098 TIP3     5263     TIP3     H1       HT       0.417000       1.00800           0
     38099 TIP3     5263     TIP3     H2       HT       0.417000       1.00800           0
     38100 TIP3     5264     TIP3     OH2      OT      -0.834000       15.9994           0
     38101 TIP3     5264     TIP3     H1       HT       0.417000       1.00800           0
     38102 TIP3     5264     TIP3     H2       HT       0.417000       1.00800           0
     38103 TIP3     5265     TIP3     OH2      OT      -0.834000       15.9994           0
     38104 TIP3     5265     TIP3     H1       HT       0.417000       1.00800           0
     38105 TIP3     5265     TIP3     H2       HT       0.417000       1.00800           0
     38106 TIP3     5266     TIP3     OH2      OT      -0.834000       15.9994           0
     38107 TIP3     5266     TIP3     H1       HT       0.417000       1.00800           0
     38108 TIP3     5266     TIP3     H2       HT       0.417000       1.00800           0
     38109 TIP3     5267     TIP3     OH2      OT      -0.834000       15.9994           0
     38110 TIP3     5267     TIP3     H1       HT       0.417000       1.00800           0
     38111 TIP3     5267     TIP3     H2       HT       0.417000       1.00800           0
     38112 TIP3     5268     TIP3     OH2      OT      -0.834000       15.9994           0
     38113 TIP3     5268     TIP3     H1       HT       0.417000       1.00800           0
     38114 TIP3     5268     TIP3     H2       HT       0.417000       1.00800           0
     38115 TIP3     5269     TIP3     OH2      OT      -0.834000       15.9994           0
     38116 TIP3     5269     TIP3     H1       HT       0.417000       1.00800           0
     38117 TIP3     5269     TIP3     H2       HT       0.417000       1.00800           0
     38118 TIP3     5270     TIP3     OH2      OT      -0.834000       15.9994           0
     38119 TIP3     5270     TIP3     H1       HT       0.417000       1.00800           0
     38120 TIP3     5270     TIP3     H2       HT       0.417000       1.00800           0
     38121 TIP3     5271     TIP3     OH2      OT      -0.834000       15.9994           0
     38122 TIP3     5271     TIP3     H1       HT       0.417000       1.00800           0
     38123 TIP3     5271     TIP3     H2       HT       0.417000       1.00800           0
     38124 TIP3     5272     TIP3     OH2      OT      -0.834000       15.9994           0
     38125 TIP3     5272     TIP3     H1       HT       0.417000       1.00800           0
     38126 TIP3     5272     TIP3     H2       HT       0.417000       1.00800           0
     38127 TIP3     5273     TIP3     OH2      OT      -0.834000       15.9994           0
     38128 TIP3     5273     TIP3     H1       HT       0.417000       1.00800           0
     38129 TIP3     5273     TIP3     H2       HT       0.417000       1.00800           0
     38130 TIP3     5274     TIP3     OH2      OT      -0.834000       15.9994           0
     38131 TIP3     5274     TIP3     H1       HT       0.417000       1.00800           0
     38132 TIP3     5274     TIP3     H2       HT       0.417000       1.00800           0
     38133 TIP3     5275     TIP3     OH2      OT      -0.834000       15.9994           0
     38134 TIP3     5275     TIP3     H1       HT       0.417000       1.00800           0
     38135 TIP3     5275     TIP3     H2       HT       0.417000       1.00800           0
     38136 TIP3     5276     TIP3     OH2      OT      -0.834000       15.9994           0
     38137 TIP3     5276     TIP3     H1       HT       0.417000       1.00800           0
     38138 TIP3     5276     TIP3     H2       HT       0.417000       1.00800           0
     38139 TIP3     5277     TIP3     OH2      OT      -0.834000       15.9994           0
     38140 TIP3     5277     TIP3     H1       HT       0.417000       1.00800           0
     38141 TIP3     5277     TIP3     H2       HT       0.417000       1.00800           0
     38142 TIP3     5278     TIP3     OH2      OT      -0.834000       15.9994           0
     38143 TIP3     5278     TIP3     H1       HT       0.417000       1.00800           0
     38144 TIP3     5278     TIP3     H2       HT       0.417000       1.00800           0
     38145 TIP3     5279     TIP3     OH2      OT      -0.834000       15.9994           0
     38146 TIP3     5279     TIP3     H1       HT       0.417000       1.00800           0
     38147 TIP3     5279     TIP3     H2       HT       0.417000       1.00800           0
     38148 TIP3     5280     TIP3     OH2      OT      -0.834000       15.9994           0
     38149 TIP3     5280     TIP3     H1       HT       0.417000       1.00800           0
     38150 TIP3     5280     TIP3     H2       HT       0.417000       1.00800           0
     38151 TIP3     5281     TIP3     OH2      OT      -0.834000       15.9994           0
     38152 TIP3     5281     TIP3     H1       HT       0.417000       1.00800           0
     38153 TIP3     5281     TIP3     H2       HT       0.417000       1.00800           0
     38154 TIP3     5282     TIP3     OH2      OT      -0.834000       15.9994           0
     38155 TIP3     5282     TIP3     H1       HT       0.417000       1.00800           0
     38156 TIP3     5282     TIP3     H2       HT       0.417000       1.00800           0
     38157 TIP3     5283     TIP3     OH2      OT      -0.834000       15.9994           0
     38158 TIP3     5283     TIP3     H1       HT       0.417000       1.00800           0
     38159 TIP3     5283     TIP3     H2       HT       0.417000       1.00800           0
     38160 TIP3     5284     TIP3     OH2      OT      -0.834000       15.9994           0
     38161 TIP3     5284     TIP3     H1       HT       0.417000       1.00800           0
     38162 TIP3     5284     TIP3     H2       HT       0.417000       1.00800           0
     38163 TIP3     5285     TIP3     OH2      OT      -0.834000       15.9994           0
     38164 TIP3     5285     TIP3     H1       HT       0.417000       1.00800           0
     38165 TIP3     5285     TIP3     H2       HT       0.417000       1.00800           0
     38166 TIP3     5286     TIP3     OH2      OT      -0.834000       15.9994           0
     38167 TIP3     5286     TIP3     H1       HT       0.417000       1.00800           0
     38168 TIP3     5286     TIP3     H2       HT       0.417000       1.00800           0
     38169 TIP3     5287     TIP3     OH2      OT      -0.834000       15.9994           0
     38170 TIP3     5287     TIP3     H1       HT       0.417000       1.00800           0
     38171 TIP3     5287     TIP3     H2       HT       0.417000       1.00800           0
     38172 TIP3     5288     TIP3     OH2      OT      -0.834000       15.9994           0
     38173 TIP3     5288     TIP3     H1       HT       0.417000       1.00800           0
     38174 TIP3     5288     TIP3     H2       HT       0.417000       1.00800           0
     38175 TIP3     5289     TIP3     OH2      OT      -0.834000       15.9994           0
     38176 TIP3     5289     TIP3     H1       HT       0.417000       1.00800           0
     38177 TIP3     5289     TIP3     H2       HT       0.417000       1.00800           0
     38178 TIP3     5290     TIP3     OH2      OT      -0.834000       15.9994           0
     38179 TIP3     5290     TIP3     H1       HT       0.417000       1.00800           0
     38180 TIP3     5290     TIP3     H2       HT       0.417000       1.00800           0
     38181 TIP3     5291     TIP3     OH2      OT      -0.834000       15.9994           0
     38182 TIP3     5291     TIP3     H1       HT       0.417000       1.00800           0
     38183 TIP3     5291     TIP3     H2       HT       0.417000       1.00800           0
     38184 TIP3     5292     TIP3     OH2      OT      -0.834000       15.9994           0
     38185 TIP3     5292     TIP3     H1       HT       0.417000       1.00800           0
     38186 TIP3     5292     TIP3     H2       HT       0.417000       1.00800           0
     38187 TIP3     5293     TIP3     OH2      OT      -0.834000       15.9994           0
     38188 TIP3     5293     TIP3     H1       HT       0.417000       1.00800           0
     38189 TIP3     5293     TIP3     H2       HT       0.417000       1.00800           0
     38190 TIP3     5294     TIP3     OH2      OT      -0.834000       15.9994           0
     38191 TIP3     5294     TIP3     H1       HT       0.417000       1.00800           0
     38192 TIP3     5294     TIP3     H2       HT       0.417000       1.00800           0
     38193 TIP3     5295     TIP3     OH2      OT      -0.834000       15.9994           0
     38194 TIP3     5295     TIP3     H1       HT       0.417000       1.00800           0
     38195 TIP3     5295     TIP3     H2       HT       0.417000       1.00800           0
     38196 TIP3     5296     TIP3     OH2      OT      -0.834000       15.9994           0
     38197 TIP3     5296     TIP3     H1       HT       0.417000       1.00800           0
     38198 TIP3     5296     TIP3     H2       HT       0.417000       1.00800           0
     38199 TIP3     5297     TIP3     OH2      OT      -0.834000       15.9994           0
     38200 TIP3     5297     TIP3     H1       HT       0.417000       1.00800           0
     38201 TIP3     5297     TIP3     H2       HT       0.417000       1.00800           0
     38202 TIP3     5298     TIP3     OH2      OT      -0.834000       15.9994           0
     38203 TIP3     5298     TIP3     H1       HT       0.417000       1.00800           0
     38204 TIP3     5298     TIP3     H2       HT       0.417000       1.00800           0
     38205 TIP3     5299     TIP3     OH2      OT      -0.834000       15.9994           0
     38206 TIP3     5299     TIP3     H1       HT       0.417000       1.00800           0
     38207 TIP3     5299     TIP3     H2       HT       0.417000       1.00800           0
     38208 TIP3     5300     TIP3     OH2      OT      -0.834000       15.9994           0
     38209 TIP3     5300     TIP3     H1       HT       0.417000       1.00800           0
     38210 TIP3     5300     TIP3     H2       HT       0.417000       1.00800           0
     38211 TIP3     5301     TIP3     OH2      OT      -0.834000       15.9994           0
     38212 TIP3     5301     TIP3     H1       HT       0.417000       1.00800           0
     38213 TIP3     5301     TIP3     H2       HT       0.417000       1.00800           0
     38214 TIP3     5302     TIP3     OH2      OT      -0.834000       15.9994           0
     38215 TIP3     5302     TIP3     H1       HT       0.417000       1.00800           0
     38216 TIP3     5302     TIP3     H2       HT       0.417000       1.00800           0
     38217 TIP3     5303     TIP3     OH2      OT      -0.834000       15.9994           0
     38218 TIP3     5303     TIP3     H1       HT       0.417000       1.00800           0
     38219 TIP3     5303     TIP3     H2       HT       0.417000       1.00800           0
     38220 TIP3     5304     TIP3     OH2      OT      -0.834000       15.9994           0
     38221 TIP3     5304     TIP3     H1       HT       0.417000       1.00800           0
     38222 TIP3     5304     TIP3     H2       HT       0.417000       1.00800           0
     38223 TIP3     5305     TIP3     OH2      OT      -0.834000       15.9994           0
     38224 TIP3     5305     TIP3     H1       HT       0.417000       1.00800           0
     38225 TIP3     5305     TIP3     H2       HT       0.417000       1.00800           0
     38226 TIP3     5306     TIP3     OH2      OT      -0.834000       15.9994           0
     38227 TIP3     5306     TIP3     H1       HT       0.417000       1.00800           0
     38228 TIP3     5306     TIP3     H2       HT       0.417000       1.00800           0
     38229 TIP3     5307     TIP3     OH2      OT      -0.834000       15.9994           0
     38230 TIP3     5307     TIP3     H1       HT       0.417000       1.00800           0
     38231 TIP3     5307     TIP3     H2       HT       0.417000       1.00800           0
     38232 TIP3     5308     TIP3     OH2      OT      -0.834000       15.9994           0
     38233 TIP3     5308     TIP3     H1       HT       0.417000       1.00800           0
     38234 TIP3     5308     TIP3     H2       HT       0.417000       1.00800           0
     38235 TIP3     5309     TIP3     OH2      OT      -0.834000       15.9994           0
     38236 TIP3     5309     TIP3     H1       HT       0.417000       1.00800           0
     38237 TIP3     5309     TIP3     H2       HT       0.417000       1.00800           0
     38238 TIP3     5310     TIP3     OH2      OT      -0.834000       15.9994           0
     38239 TIP3     5310     TIP3     H1       HT       0.417000       1.00800           0
     38240 TIP3     5310     TIP3     H2       HT       0.417000       1.00800           0
     38241 TIP3     5311     TIP3     OH2      OT      -0.834000       15.9994           0
     38242 TIP3     5311     TIP3     H1       HT       0.417000       1.00800           0
     38243 TIP3     5311     TIP3     H2       HT       0.417000       1.00800           0
     38244 TIP3     5312     TIP3     OH2      OT      -0.834000       15.9994           0
     38245 TIP3     5312     TIP3     H1       HT       0.417000       1.00800           0
     38246 TIP3     5312     TIP3     H2       HT       0.417000       1.00800           0
     38247 TIP3     5313     TIP3     OH2      OT      -0.834000       15.9994           0
     38248 TIP3     5313     TIP3     H1       HT       0.417000       1.00800           0
     38249 TIP3     5313     TIP3     H2       HT       0.417000       1.00800           0
     38250 TIP3     5314     TIP3     OH2      OT      -0.834000       15.9994           0
     38251 TIP3     5314     TIP3     H1       HT       0.417000       1.00800           0
     38252 TIP3     5314     TIP3     H2       HT       0.417000       1.00800           0
     38253 TIP3     5315     TIP3     OH2      OT      -0.834000       15.9994           0
     38254 TIP3     5315     TIP3     H1       HT       0.417000       1.00800           0
     38255 TIP3     5315     TIP3     H2       HT       0.417000       1.00800           0
     38256 TIP3     5316     TIP3     OH2      OT      -0.834000       15.9994           0
     38257 TIP3     5316     TIP3     H1       HT       0.417000       1.00800           0
     38258 TIP3     5316     TIP3     H2       HT       0.417000       1.00800           0
     38259 TIP3     5317     TIP3     OH2      OT      -0.834000       15.9994           0
     38260 TIP3     5317     TIP3     H1       HT       0.417000       1.00800           0
     38261 TIP3     5317     TIP3     H2       HT       0.417000       1.00800           0
     38262 TIP3     5318     TIP3     OH2      OT      -0.834000       15.9994           0
     38263 TIP3     5318     TIP3     H1       HT       0.417000       1.00800           0
     38264 TIP3     5318     TIP3     H2       HT       0.417000       1.00800           0
     38265 TIP3     5319     TIP3     OH2      OT      -0.834000       15.9994           0
     38266 TIP3     5319     TIP3     H1       HT       0.417000       1.00800           0
     38267 TIP3     5319     TIP3     H2       HT       0.417000       1.00800           0
     38268 TIP3     5320     TIP3     OH2      OT      -0.834000       15.9994           0
     38269 TIP3     5320     TIP3     H1       HT       0.417000       1.00800           0
     38270 TIP3     5320     TIP3     H2       HT       0.417000       1.00800           0
     38271 TIP3     5321     TIP3     OH2      OT      -0.834000       15.9994           0
     38272 TIP3     5321     TIP3     H1       HT       0.417000       1.00800           0
     38273 TIP3     5321     TIP3     H2       HT       0.417000       1.00800           0
     38274 TIP3     5322     TIP3     OH2      OT      -0.834000       15.9994           0
     38275 TIP3     5322     TIP3     H1       HT       0.417000       1.00800           0
     38276 TIP3     5322     TIP3     H2       HT       0.417000       1.00800           0
     38277 TIP3     5323     TIP3     OH2      OT      -0.834000       15.9994           0
     38278 TIP3     5323     TIP3     H1       HT       0.417000       1.00800           0
     38279 TIP3     5323     TIP3     H2       HT       0.417000       1.00800           0
     38280 TIP3     5324     TIP3     OH2      OT      -0.834000       15.9994           0
     38281 TIP3     5324     TIP3     H1       HT       0.417000       1.00800           0
     38282 TIP3     5324     TIP3     H2       HT       0.417000       1.00800           0
     38283 TIP3     5325     TIP3     OH2      OT      -0.834000       15.9994           0
     38284 TIP3     5325     TIP3     H1       HT       0.417000       1.00800           0
     38285 TIP3     5325     TIP3     H2       HT       0.417000       1.00800           0
     38286 TIP3     5326     TIP3     OH2      OT      -0.834000       15.9994           0
     38287 TIP3     5326     TIP3     H1       HT       0.417000       1.00800           0
     38288 TIP3     5326     TIP3     H2       HT       0.417000       1.00800           0
     38289 TIP3     5327     TIP3     OH2      OT      -0.834000       15.9994           0
     38290 TIP3     5327     TIP3     H1       HT       0.417000       1.00800           0
     38291 TIP3     5327     TIP3     H2       HT       0.417000       1.00800           0
     38292 TIP3     5328     TIP3     OH2      OT      -0.834000       15.9994           0
     38293 TIP3     5328     TIP3     H1       HT       0.417000       1.00800           0
     38294 TIP3     5328     TIP3     H2       HT       0.417000       1.00800           0
     38295 TIP3     5329     TIP3     OH2      OT      -0.834000       15.9994           0
     38296 TIP3     5329     TIP3     H1       HT       0.417000       1.00800           0
     38297 TIP3     5329     TIP3     H2       HT       0.417000       1.00800           0
     38298 TIP3     5330     TIP3     OH2      OT      -0.834000       15.9994           0
     38299 TIP3     5330     TIP3     H1       HT       0.417000       1.00800           0
     38300 TIP3     5330     TIP3     H2       HT       0.417000       1.00800           0
     38301 TIP3     5331     TIP3     OH2      OT      -0.834000       15.9994           0
     38302 TIP3     5331     TIP3     H1       HT       0.417000       1.00800           0
     38303 TIP3     5331     TIP3     H2       HT       0.417000       1.00800           0
     38304 TIP3     5332     TIP3     OH2      OT      -0.834000       15.9994           0
     38305 TIP3     5332     TIP3     H1       HT       0.417000       1.00800           0
     38306 TIP3     5332     TIP3     H2       HT       0.417000       1.00800           0
     38307 TIP3     5333     TIP3     OH2      OT      -0.834000       15.9994           0
     38308 TIP3     5333     TIP3     H1       HT       0.417000       1.00800           0
     38309 TIP3     5333     TIP3     H2       HT       0.417000       1.00800           0
     38310 TIP3     5334     TIP3     OH2      OT      -0.834000       15.9994           0
     38311 TIP3     5334     TIP3     H1       HT       0.417000       1.00800           0
     38312 TIP3     5334     TIP3     H2       HT       0.417000       1.00800           0
     38313 TIP3     5335     TIP3     OH2      OT      -0.834000       15.9994           0
     38314 TIP3     5335     TIP3     H1       HT       0.417000       1.00800           0
     38315 TIP3     5335     TIP3     H2       HT       0.417000       1.00800           0
     38316 TIP3     5336     TIP3     OH2      OT      -0.834000       15.9994           0
     38317 TIP3     5336     TIP3     H1       HT       0.417000       1.00800           0
     38318 TIP3     5336     TIP3     H2       HT       0.417000       1.00800           0
     38319 TIP3     5337     TIP3     OH2      OT      -0.834000       15.9994           0
     38320 TIP3     5337     TIP3     H1       HT       0.417000       1.00800           0
     38321 TIP3     5337     TIP3     H2       HT       0.417000       1.00800           0
     38322 TIP3     5338     TIP3     OH2      OT      -0.834000       15.9994           0
     38323 TIP3     5338     TIP3     H1       HT       0.417000       1.00800           0
     38324 TIP3     5338     TIP3     H2       HT       0.417000       1.00800           0
     38325 TIP3     5339     TIP3     OH2      OT      -0.834000       15.9994           0
     38326 TIP3     5339     TIP3     H1       HT       0.417000       1.00800           0
     38327 TIP3     5339     TIP3     H2       HT       0.417000       1.00800           0
     38328 TIP3     5340     TIP3     OH2      OT      -0.834000       15.9994           0
     38329 TIP3     5340     TIP3     H1       HT       0.417000       1.00800           0
     38330 TIP3     5340     TIP3     H2       HT       0.417000       1.00800           0
     38331 TIP3     5341     TIP3     OH2      OT      -0.834000       15.9994           0
     38332 TIP3     5341     TIP3     H1       HT       0.417000       1.00800           0
     38333 TIP3     5341     TIP3     H2       HT       0.417000       1.00800           0
     38334 TIP3     5342     TIP3     OH2      OT      -0.834000       15.9994           0
     38335 TIP3     5342     TIP3     H1       HT       0.417000       1.00800           0
     38336 TIP3     5342     TIP3     H2       HT       0.417000       1.00800           0
     38337 TIP3     5343     TIP3     OH2      OT      -0.834000       15.9994           0
     38338 TIP3     5343     TIP3     H1       HT       0.417000       1.00800           0
     38339 TIP3     5343     TIP3     H2       HT       0.417000       1.00800           0
     38340 TIP3     5344     TIP3     OH2      OT      -0.834000       15.9994           0
     38341 TIP3     5344     TIP3     H1       HT       0.417000       1.00800           0
     38342 TIP3     5344     TIP3     H2       HT       0.417000       1.00800           0
     38343 TIP3     5345     TIP3     OH2      OT      -0.834000       15.9994           0
     38344 TIP3     5345     TIP3     H1       HT       0.417000       1.00800           0
     38345 TIP3     5345     TIP3     H2       HT       0.417000       1.00800           0
     38346 TIP3     5346     TIP3     OH2      OT      -0.834000       15.9994           0
     38347 TIP3     5346     TIP3     H1       HT       0.417000       1.00800           0
     38348 TIP3     5346     TIP3     H2       HT       0.417000       1.00800           0
     38349 TIP3     5347     TIP3     OH2      OT      -0.834000       15.9994           0
     38350 TIP3     5347     TIP3     H1       HT       0.417000       1.00800           0
     38351 TIP3     5347     TIP3     H2       HT       0.417000       1.00800           0
     38352 TIP3     5348     TIP3     OH2      OT      -0.834000       15.9994           0
     38353 TIP3     5348     TIP3     H1       HT       0.417000       1.00800           0
     38354 TIP3     5348     TIP3     H2       HT       0.417000       1.00800           0
     38355 TIP3     5349     TIP3     OH2      OT      -0.834000       15.9994           0
     38356 TIP3     5349     TIP3     H1       HT       0.417000       1.00800           0
     38357 TIP3     5349     TIP3     H2       HT       0.417000       1.00800           0
     38358 TIP3     5350     TIP3     OH2      OT      -0.834000       15.9994           0
     38359 TIP3     5350     TIP3     H1       HT       0.417000       1.00800           0
     38360 TIP3     5350     TIP3     H2       HT       0.417000       1.00800           0
     38361 TIP3     5351     TIP3     OH2      OT      -0.834000       15.9994           0
     38362 TIP3     5351     TIP3     H1       HT       0.417000       1.00800           0
     38363 TIP3     5351     TIP3     H2       HT       0.417000       1.00800           0
     38364 TIP3     5352     TIP3     OH2      OT      -0.834000       15.9994           0
     38365 TIP3     5352     TIP3     H1       HT       0.417000       1.00800           0
     38366 TIP3     5352     TIP3     H2       HT       0.417000       1.00800           0
     38367 TIP3     5353     TIP3     OH2      OT      -0.834000       15.9994           0
     38368 TIP3     5353     TIP3     H1       HT       0.417000       1.00800           0
     38369 TIP3     5353     TIP3     H2       HT       0.417000       1.00800           0
     38370 TIP3     5354     TIP3     OH2      OT      -0.834000       15.9994           0
     38371 TIP3     5354     TIP3     H1       HT       0.417000       1.00800           0
     38372 TIP3     5354     TIP3     H2       HT       0.417000       1.00800           0
     38373 TIP3     5355     TIP3     OH2      OT      -0.834000       15.9994           0
     38374 TIP3     5355     TIP3     H1       HT       0.417000       1.00800           0
     38375 TIP3     5355     TIP3     H2       HT       0.417000       1.00800           0
     38376 TIP3     5356     TIP3     OH2      OT      -0.834000       15.9994           0
     38377 TIP3     5356     TIP3     H1       HT       0.417000       1.00800           0
     38378 TIP3     5356     TIP3     H2       HT       0.417000       1.00800           0
     38379 TIP3     5357     TIP3     OH2      OT      -0.834000       15.9994           0
     38380 TIP3     5357     TIP3     H1       HT       0.417000       1.00800           0
     38381 TIP3     5357     TIP3     H2       HT       0.417000       1.00800           0
     38382 TIP3     5358     TIP3     OH2      OT      -0.834000       15.9994           0
     38383 TIP3     5358     TIP3     H1       HT       0.417000       1.00800           0
     38384 TIP3     5358     TIP3     H2       HT       0.417000       1.00800           0
     38385 TIP3     5359     TIP3     OH2      OT      -0.834000       15.9994           0
     38386 TIP3     5359     TIP3     H1       HT       0.417000       1.00800           0
     38387 TIP3     5359     TIP3     H2       HT       0.417000       1.00800           0
     38388 TIP3     5360     TIP3     OH2      OT      -0.834000       15.9994           0
     38389 TIP3     5360     TIP3     H1       HT       0.417000       1.00800           0
     38390 TIP3     5360     TIP3     H2       HT       0.417000       1.00800           0
     38391 TIP3     5361     TIP3     OH2      OT      -0.834000       15.9994           0
     38392 TIP3     5361     TIP3     H1       HT       0.417000       1.00800           0
     38393 TIP3     5361     TIP3     H2       HT       0.417000       1.00800           0
     38394 TIP3     5362     TIP3     OH2      OT      -0.834000       15.9994           0
     38395 TIP3     5362     TIP3     H1       HT       0.417000       1.00800           0
     38396 TIP3     5362     TIP3     H2       HT       0.417000       1.00800           0
     38397 TIP3     5363     TIP3     OH2      OT      -0.834000       15.9994           0
     38398 TIP3     5363     TIP3     H1       HT       0.417000       1.00800           0
     38399 TIP3     5363     TIP3     H2       HT       0.417000       1.00800           0
     38400 TIP3     5364     TIP3     OH2      OT      -0.834000       15.9994           0
     38401 TIP3     5364     TIP3     H1       HT       0.417000       1.00800           0
     38402 TIP3     5364     TIP3     H2       HT       0.417000       1.00800           0
     38403 TIP3     5365     TIP3     OH2      OT      -0.834000       15.9994           0
     38404 TIP3     5365     TIP3     H1       HT       0.417000       1.00800           0
     38405 TIP3     5365     TIP3     H2       HT       0.417000       1.00800           0
     38406 TIP3     5366     TIP3     OH2      OT      -0.834000       15.9994           0
     38407 TIP3     5366     TIP3     H1       HT       0.417000       1.00800           0
     38408 TIP3     5366     TIP3     H2       HT       0.417000       1.00800           0
     38409 TIP3     5367     TIP3     OH2      OT      -0.834000       15.9994           0
     38410 TIP3     5367     TIP3     H1       HT       0.417000       1.00800           0
     38411 TIP3     5367     TIP3     H2       HT       0.417000       1.00800           0
     38412 TIP3     5368     TIP3     OH2      OT      -0.834000       15.9994           0
     38413 TIP3     5368     TIP3     H1       HT       0.417000       1.00800           0
     38414 TIP3     5368     TIP3     H2       HT       0.417000       1.00800           0
     38415 TIP3     5369     TIP3     OH2      OT      -0.834000       15.9994           0
     38416 TIP3     5369     TIP3     H1       HT       0.417000       1.00800           0
     38417 TIP3     5369     TIP3     H2       HT       0.417000       1.00800           0
     38418 TIP3     5370     TIP3     OH2      OT      -0.834000       15.9994           0
     38419 TIP3     5370     TIP3     H1       HT       0.417000       1.00800           0
     38420 TIP3     5370     TIP3     H2       HT       0.417000       1.00800           0
     38421 TIP3     5371     TIP3     OH2      OT      -0.834000       15.9994           0
     38422 TIP3     5371     TIP3     H1       HT       0.417000       1.00800           0
     38423 TIP3     5371     TIP3     H2       HT       0.417000       1.00800           0
     38424 TIP3     5372     TIP3     OH2      OT      -0.834000       15.9994           0
     38425 TIP3     5372     TIP3     H1       HT       0.417000       1.00800           0
     38426 TIP3     5372     TIP3     H2       HT       0.417000       1.00800           0
     38427 TIP3     5373     TIP3     OH2      OT      -0.834000       15.9994           0
     38428 TIP3     5373     TIP3     H1       HT       0.417000       1.00800           0
     38429 TIP3     5373     TIP3     H2       HT       0.417000       1.00800           0
     38430 TIP3     5374     TIP3     OH2      OT      -0.834000       15.9994           0
     38431 TIP3     5374     TIP3     H1       HT       0.417000       1.00800           0
     38432 TIP3     5374     TIP3     H2       HT       0.417000       1.00800           0
     38433 TIP3     5375     TIP3     OH2      OT      -0.834000       15.9994           0
     38434 TIP3     5375     TIP3     H1       HT       0.417000       1.00800           0
     38435 TIP3     5375     TIP3     H2       HT       0.417000       1.00800           0
     38436 TIP3     5376     TIP3     OH2      OT      -0.834000       15.9994           0
     38437 TIP3     5376     TIP3     H1       HT       0.417000       1.00800           0
     38438 TIP3     5376     TIP3     H2       HT       0.417000       1.00800           0
     38439 TIP3     5377     TIP3     OH2      OT      -0.834000       15.9994           0
     38440 TIP3     5377     TIP3     H1       HT       0.417000       1.00800           0
     38441 TIP3     5377     TIP3     H2       HT       0.417000       1.00800           0
     38442 TIP3     5378     TIP3     OH2      OT      -0.834000       15.9994           0
     38443 TIP3     5378     TIP3     H1       HT       0.417000       1.00800           0
     38444 TIP3     5378     TIP3     H2       HT       0.417000       1.00800           0
     38445 TIP3     5379     TIP3     OH2      OT      -0.834000       15.9994           0
     38446 TIP3     5379     TIP3     H1       HT       0.417000       1.00800           0
     38447 TIP3     5379     TIP3     H2       HT       0.417000       1.00800           0
     38448 TIP3     5380     TIP3     OH2      OT      -0.834000       15.9994           0
     38449 TIP3     5380     TIP3     H1       HT       0.417000       1.00800           0
     38450 TIP3     5380     TIP3     H2       HT       0.417000       1.00800           0
     38451 TIP3     5381     TIP3     OH2      OT      -0.834000       15.9994           0
     38452 TIP3     5381     TIP3     H1       HT       0.417000       1.00800           0
     38453 TIP3     5381     TIP3     H2       HT       0.417000       1.00800           0
     38454 TIP3     5382     TIP3     OH2      OT      -0.834000       15.9994           0
     38455 TIP3     5382     TIP3     H1       HT       0.417000       1.00800           0
     38456 TIP3     5382     TIP3     H2       HT       0.417000       1.00800           0
     38457 TIP3     5383     TIP3     OH2      OT      -0.834000       15.9994           0
     38458 TIP3     5383     TIP3     H1       HT       0.417000       1.00800           0
     38459 TIP3     5383     TIP3     H2       HT       0.417000       1.00800           0
     38460 TIP3     5384     TIP3     OH2      OT      -0.834000       15.9994           0
     38461 TIP3     5384     TIP3     H1       HT       0.417000       1.00800           0
     38462 TIP3     5384     TIP3     H2       HT       0.417000       1.00800           0
     38463 TIP3     5385     TIP3     OH2      OT      -0.834000       15.9994           0
     38464 TIP3     5385     TIP3     H1       HT       0.417000       1.00800           0
     38465 TIP3     5385     TIP3     H2       HT       0.417000       1.00800           0
     38466 TIP3     5386     TIP3     OH2      OT      -0.834000       15.9994           0
     38467 TIP3     5386     TIP3     H1       HT       0.417000       1.00800           0
     38468 TIP3     5386     TIP3     H2       HT       0.417000       1.00800           0
     38469 TIP3     5387     TIP3     OH2      OT      -0.834000       15.9994           0
     38470 TIP3     5387     TIP3     H1       HT       0.417000       1.00800           0
     38471 TIP3     5387     TIP3     H2       HT       0.417000       1.00800           0
     38472 TIP3     5388     TIP3     OH2      OT      -0.834000       15.9994           0
     38473 TIP3     5388     TIP3     H1       HT       0.417000       1.00800           0
     38474 TIP3     5388     TIP3     H2       HT       0.417000       1.00800           0
     38475 TIP3     5389     TIP3     OH2      OT      -0.834000       15.9994           0
     38476 TIP3     5389     TIP3     H1       HT       0.417000       1.00800           0
     38477 TIP3     5389     TIP3     H2       HT       0.417000       1.00800           0
     38478 TIP3     5390     TIP3     OH2      OT      -0.834000       15.9994           0
     38479 TIP3     5390     TIP3     H1       HT       0.417000       1.00800           0
     38480 TIP3     5390     TIP3     H2       HT       0.417000       1.00800           0
     38481 TIP3     5391     TIP3     OH2      OT      -0.834000       15.9994           0
     38482 TIP3     5391     TIP3     H1       HT       0.417000       1.00800           0
     38483 TIP3     5391     TIP3     H2       HT       0.417000       1.00800           0
     38484 TIP3     5392     TIP3     OH2      OT      -0.834000       15.9994           0
     38485 TIP3     5392     TIP3     H1       HT       0.417000       1.00800           0
     38486 TIP3     5392     TIP3     H2       HT       0.417000       1.00800           0
     38487 TIP3     5393     TIP3     OH2      OT      -0.834000       15.9994           0
     38488 TIP3     5393     TIP3     H1       HT       0.417000       1.00800           0
     38489 TIP3     5393     TIP3     H2       HT       0.417000       1.00800           0
     38490 TIP3     5394     TIP3     OH2      OT      -0.834000       15.9994           0
     38491 TIP3     5394     TIP3     H1       HT       0.417000       1.00800           0
     38492 TIP3     5394     TIP3     H2       HT       0.417000       1.00800           0
     38493 TIP3     5395     TIP3     OH2      OT      -0.834000       15.9994           0
     38494 TIP3     5395     TIP3     H1       HT       0.417000       1.00800           0
     38495 TIP3     5395     TIP3     H2       HT       0.417000       1.00800           0
     38496 TIP3     5396     TIP3     OH2      OT      -0.834000       15.9994           0
     38497 TIP3     5396     TIP3     H1       HT       0.417000       1.00800           0
     38498 TIP3     5396     TIP3     H2       HT       0.417000       1.00800           0
     38499 TIP3     5397     TIP3     OH2      OT      -0.834000       15.9994           0
     38500 TIP3     5397     TIP3     H1       HT       0.417000       1.00800           0
     38501 TIP3     5397     TIP3     H2       HT       0.417000       1.00800           0
     38502 TIP3     5398     TIP3     OH2      OT      -0.834000       15.9994           0
     38503 TIP3     5398     TIP3     H1       HT       0.417000       1.00800           0
     38504 TIP3     5398     TIP3     H2       HT       0.417000       1.00800           0
     38505 TIP3     5399     TIP3     OH2      OT      -0.834000       15.9994           0
     38506 TIP3     5399     TIP3     H1       HT       0.417000       1.00800           0
     38507 TIP3     5399     TIP3     H2       HT       0.417000       1.00800           0
     38508 TIP3     5400     TIP3     OH2      OT      -0.834000       15.9994           0
     38509 TIP3     5400     TIP3     H1       HT       0.417000       1.00800           0
     38510 TIP3     5400     TIP3     H2       HT       0.417000       1.00800           0
     38511 TIP3     5401     TIP3     OH2      OT      -0.834000       15.9994           0
     38512 TIP3     5401     TIP3     H1       HT       0.417000       1.00800           0
     38513 TIP3     5401     TIP3     H2       HT       0.417000       1.00800           0
     38514 TIP3     5402     TIP3     OH2      OT      -0.834000       15.9994           0
     38515 TIP3     5402     TIP3     H1       HT       0.417000       1.00800           0
     38516 TIP3     5402     TIP3     H2       HT       0.417000       1.00800           0
     38517 TIP3     5403     TIP3     OH2      OT      -0.834000       15.9994           0
     38518 TIP3     5403     TIP3     H1       HT       0.417000       1.00800           0
     38519 TIP3     5403     TIP3     H2       HT       0.417000       1.00800           0
     38520 TIP3     5404     TIP3     OH2      OT      -0.834000       15.9994           0
     38521 TIP3     5404     TIP3     H1       HT       0.417000       1.00800           0
     38522 TIP3     5404     TIP3     H2       HT       0.417000       1.00800           0
     38523 TIP3     5405     TIP3     OH2      OT      -0.834000       15.9994           0
     38524 TIP3     5405     TIP3     H1       HT       0.417000       1.00800           0
     38525 TIP3     5405     TIP3     H2       HT       0.417000       1.00800           0
     38526 TIP3     5406     TIP3     OH2      OT      -0.834000       15.9994           0
     38527 TIP3     5406     TIP3     H1       HT       0.417000       1.00800           0
     38528 TIP3     5406     TIP3     H2       HT       0.417000       1.00800           0
     38529 TIP3     5407     TIP3     OH2      OT      -0.834000       15.9994           0
     38530 TIP3     5407     TIP3     H1       HT       0.417000       1.00800           0
     38531 TIP3     5407     TIP3     H2       HT       0.417000       1.00800           0
     38532 TIP3     5408     TIP3     OH2      OT      -0.834000       15.9994           0
     38533 TIP3     5408     TIP3     H1       HT       0.417000       1.00800           0
     38534 TIP3     5408     TIP3     H2       HT       0.417000       1.00800           0
     38535 TIP3     5409     TIP3     OH2      OT      -0.834000       15.9994           0
     38536 TIP3     5409     TIP3     H1       HT       0.417000       1.00800           0
     38537 TIP3     5409     TIP3     H2       HT       0.417000       1.00800           0
     38538 TIP3     5410     TIP3     OH2      OT      -0.834000       15.9994           0
     38539 TIP3     5410     TIP3     H1       HT       0.417000       1.00800           0
     38540 TIP3     5410     TIP3     H2       HT       0.417000       1.00800           0
     38541 TIP3     5411     TIP3     OH2      OT      -0.834000       15.9994           0
     38542 TIP3     5411     TIP3     H1       HT       0.417000       1.00800           0
     38543 TIP3     5411     TIP3     H2       HT       0.417000       1.00800           0
     38544 TIP3     5412     TIP3     OH2      OT      -0.834000       15.9994           0
     38545 TIP3     5412     TIP3     H1       HT       0.417000       1.00800           0
     38546 TIP3     5412     TIP3     H2       HT       0.417000       1.00800           0
     38547 TIP3     5413     TIP3     OH2      OT      -0.834000       15.9994           0
     38548 TIP3     5413     TIP3     H1       HT       0.417000       1.00800           0
     38549 TIP3     5413     TIP3     H2       HT       0.417000       1.00800           0
     38550 TIP3     5414     TIP3     OH2      OT      -0.834000       15.9994           0
     38551 TIP3     5414     TIP3     H1       HT       0.417000       1.00800           0
     38552 TIP3     5414     TIP3     H2       HT       0.417000       1.00800           0
     38553 TIP3     5415     TIP3     OH2      OT      -0.834000       15.9994           0
     38554 TIP3     5415     TIP3     H1       HT       0.417000       1.00800           0
     38555 TIP3     5415     TIP3     H2       HT       0.417000       1.00800           0
     38556 TIP3     5416     TIP3     OH2      OT      -0.834000       15.9994           0
     38557 TIP3     5416     TIP3     H1       HT       0.417000       1.00800           0
     38558 TIP3     5416     TIP3     H2       HT       0.417000       1.00800           0
     38559 TIP3     5417     TIP3     OH2      OT      -0.834000       15.9994           0
     38560 TIP3     5417     TIP3     H1       HT       0.417000       1.00800           0
     38561 TIP3     5417     TIP3     H2       HT       0.417000       1.00800           0
     38562 TIP3     5418     TIP3     OH2      OT      -0.834000       15.9994           0
     38563 TIP3     5418     TIP3     H1       HT       0.417000       1.00800           0
     38564 TIP3     5418     TIP3     H2       HT       0.417000       1.00800           0
     38565 TIP3     5419     TIP3     OH2      OT      -0.834000       15.9994           0
     38566 TIP3     5419     TIP3     H1       HT       0.417000       1.00800           0
     38567 TIP3     5419     TIP3     H2       HT       0.417000       1.00800           0
     38568 TIP3     5420     TIP3     OH2      OT      -0.834000       15.9994           0
     38569 TIP3     5420     TIP3     H1       HT       0.417000       1.00800           0
     38570 TIP3     5420     TIP3     H2       HT       0.417000       1.00800           0
     38571 TIP3     5421     TIP3     OH2      OT      -0.834000       15.9994           0
     38572 TIP3     5421     TIP3     H1       HT       0.417000       1.00800           0
     38573 TIP3     5421     TIP3     H2       HT       0.417000       1.00800           0
     38574 TIP3     5422     TIP3     OH2      OT      -0.834000       15.9994           0
     38575 TIP3     5422     TIP3     H1       HT       0.417000       1.00800           0
     38576 TIP3     5422     TIP3     H2       HT       0.417000       1.00800           0
     38577 TIP3     5423     TIP3     OH2      OT      -0.834000       15.9994           0
     38578 TIP3     5423     TIP3     H1       HT       0.417000       1.00800           0
     38579 TIP3     5423     TIP3     H2       HT       0.417000       1.00800           0
     38580 TIP3     5424     TIP3     OH2      OT      -0.834000       15.9994           0
     38581 TIP3     5424     TIP3     H1       HT       0.417000       1.00800           0
     38582 TIP3     5424     TIP3     H2       HT       0.417000       1.00800           0
     38583 TIP3     5425     TIP3     OH2      OT      -0.834000       15.9994           0
     38584 TIP3     5425     TIP3     H1       HT       0.417000       1.00800           0
     38585 TIP3     5425     TIP3     H2       HT       0.417000       1.00800           0
     38586 TIP3     5426     TIP3     OH2      OT      -0.834000       15.9994           0
     38587 TIP3     5426     TIP3     H1       HT       0.417000       1.00800           0
     38588 TIP3     5426     TIP3     H2       HT       0.417000       1.00800           0
     38589 TIP3     5427     TIP3     OH2      OT      -0.834000       15.9994           0
     38590 TIP3     5427     TIP3     H1       HT       0.417000       1.00800           0
     38591 TIP3     5427     TIP3     H2       HT       0.417000       1.00800           0
     38592 TIP3     5428     TIP3     OH2      OT      -0.834000       15.9994           0
     38593 TIP3     5428     TIP3     H1       HT       0.417000       1.00800           0
     38594 TIP3     5428     TIP3     H2       HT       0.417000       1.00800           0
     38595 TIP3     5429     TIP3     OH2      OT      -0.834000       15.9994           0
     38596 TIP3     5429     TIP3     H1       HT       0.417000       1.00800           0
     38597 TIP3     5429     TIP3     H2       HT       0.417000       1.00800           0
     38598 TIP3     5430     TIP3     OH2      OT      -0.834000       15.9994           0
     38599 TIP3     5430     TIP3     H1       HT       0.417000       1.00800           0
     38600 TIP3     5430     TIP3     H2       HT       0.417000       1.00800           0
     38601 TIP3     5431     TIP3     OH2      OT      -0.834000       15.9994           0
     38602 TIP3     5431     TIP3     H1       HT       0.417000       1.00800           0
     38603 TIP3     5431     TIP3     H2       HT       0.417000       1.00800           0
     38604 TIP3     5432     TIP3     OH2      OT      -0.834000       15.9994           0
     38605 TIP3     5432     TIP3     H1       HT       0.417000       1.00800           0
     38606 TIP3     5432     TIP3     H2       HT       0.417000       1.00800           0
     38607 TIP3     5433     TIP3     OH2      OT      -0.834000       15.9994           0
     38608 TIP3     5433     TIP3     H1       HT       0.417000       1.00800           0
     38609 TIP3     5433     TIP3     H2       HT       0.417000       1.00800           0
     38610 TIP3     5434     TIP3     OH2      OT      -0.834000       15.9994           0
     38611 TIP3     5434     TIP3     H1       HT       0.417000       1.00800           0
     38612 TIP3     5434     TIP3     H2       HT       0.417000       1.00800           0
     38613 TIP3     5435     TIP3     OH2      OT      -0.834000       15.9994           0
     38614 TIP3     5435     TIP3     H1       HT       0.417000       1.00800           0
     38615 TIP3     5435     TIP3     H2       HT       0.417000       1.00800           0
     38616 TIP3     5436     TIP3     OH2      OT      -0.834000       15.9994           0
     38617 TIP3     5436     TIP3     H1       HT       0.417000       1.00800           0
     38618 TIP3     5436     TIP3     H2       HT       0.417000       1.00800           0
     38619 TIP3     5437     TIP3     OH2      OT      -0.834000       15.9994           0
     38620 TIP3     5437     TIP3     H1       HT       0.417000       1.00800           0
     38621 TIP3     5437     TIP3     H2       HT       0.417000       1.00800           0
     38622 TIP3     5438     TIP3     OH2      OT      -0.834000       15.9994           0
     38623 TIP3     5438     TIP3     H1       HT       0.417000       1.00800           0
     38624 TIP3     5438     TIP3     H2       HT       0.417000       1.00800           0
     38625 TIP3     5439     TIP3     OH2      OT      -0.834000       15.9994           0
     38626 TIP3     5439     TIP3     H1       HT       0.417000       1.00800           0
     38627 TIP3     5439     TIP3     H2       HT       0.417000       1.00800           0
     38628 TIP3     5440     TIP3     OH2      OT      -0.834000       15.9994           0
     38629 TIP3     5440     TIP3     H1       HT       0.417000       1.00800           0
     38630 TIP3     5440     TIP3     H2       HT       0.417000       1.00800           0
     38631 TIP3     5441     TIP3     OH2      OT      -0.834000       15.9994           0
     38632 TIP3     5441     TIP3     H1       HT       0.417000       1.00800           0
     38633 TIP3     5441     TIP3     H2       HT       0.417000       1.00800           0
     38634 TIP3     5442     TIP3     OH2      OT      -0.834000       15.9994           0
     38635 TIP3     5442     TIP3     H1       HT       0.417000       1.00800           0
     38636 TIP3     5442     TIP3     H2       HT       0.417000       1.00800           0
     38637 TIP3     5443     TIP3     OH2      OT      -0.834000       15.9994           0
     38638 TIP3     5443     TIP3     H1       HT       0.417000       1.00800           0
     38639 TIP3     5443     TIP3     H2       HT       0.417000       1.00800           0
     38640 TIP3     5444     TIP3     OH2      OT      -0.834000       15.9994           0
     38641 TIP3     5444     TIP3     H1       HT       0.417000       1.00800           0
     38642 TIP3     5444     TIP3     H2       HT       0.417000       1.00800           0
     38643 TIP3     5445     TIP3     OH2      OT      -0.834000       15.9994           0
     38644 TIP3     5445     TIP3     H1       HT       0.417000       1.00800           0
     38645 TIP3     5445     TIP3     H2       HT       0.417000       1.00800           0
     38646 TIP3     5446     TIP3     OH2      OT      -0.834000       15.9994           0
     38647 TIP3     5446     TIP3     H1       HT       0.417000       1.00800           0
     38648 TIP3     5446     TIP3     H2       HT       0.417000       1.00800           0
     38649 TIP3     5447     TIP3     OH2      OT      -0.834000       15.9994           0
     38650 TIP3     5447     TIP3     H1       HT       0.417000       1.00800           0
     38651 TIP3     5447     TIP3     H2       HT       0.417000       1.00800           0
     38652 TIP3     5448     TIP3     OH2      OT      -0.834000       15.9994           0
     38653 TIP3     5448     TIP3     H1       HT       0.417000       1.00800           0
     38654 TIP3     5448     TIP3     H2       HT       0.417000       1.00800           0
     38655 TIP3     5449     TIP3     OH2      OT      -0.834000       15.9994           0
     38656 TIP3     5449     TIP3     H1       HT       0.417000       1.00800           0
     38657 TIP3     5449     TIP3     H2       HT       0.417000       1.00800           0
     38658 TIP3     5450     TIP3     OH2      OT      -0.834000       15.9994           0
     38659 TIP3     5450     TIP3     H1       HT       0.417000       1.00800           0
     38660 TIP3     5450     TIP3     H2       HT       0.417000       1.00800           0
     38661 TIP3     5451     TIP3     OH2      OT      -0.834000       15.9994           0
     38662 TIP3     5451     TIP3     H1       HT       0.417000       1.00800           0
     38663 TIP3     5451     TIP3     H2       HT       0.417000       1.00800           0
     38664 TIP3     5452     TIP3     OH2      OT      -0.834000       15.9994           0
     38665 TIP3     5452     TIP3     H1       HT       0.417000       1.00800           0
     38666 TIP3     5452     TIP3     H2       HT       0.417000       1.00800           0
     38667 TIP3     5453     TIP3     OH2      OT      -0.834000       15.9994           0
     38668 TIP3     5453     TIP3     H1       HT       0.417000       1.00800           0
     38669 TIP3     5453     TIP3     H2       HT       0.417000       1.00800           0
     38670 TIP3     5454     TIP3     OH2      OT      -0.834000       15.9994           0
     38671 TIP3     5454     TIP3     H1       HT       0.417000       1.00800           0
     38672 TIP3     5454     TIP3     H2       HT       0.417000       1.00800           0
     38673 TIP3     5455     TIP3     OH2      OT      -0.834000       15.9994           0
     38674 TIP3     5455     TIP3     H1       HT       0.417000       1.00800           0
     38675 TIP3     5455     TIP3     H2       HT       0.417000       1.00800           0
     38676 TIP3     5456     TIP3     OH2      OT      -0.834000       15.9994           0
     38677 TIP3     5456     TIP3     H1       HT       0.417000       1.00800           0
     38678 TIP3     5456     TIP3     H2       HT       0.417000       1.00800           0
     38679 TIP3     5457     TIP3     OH2      OT      -0.834000       15.9994           0
     38680 TIP3     5457     TIP3     H1       HT       0.417000       1.00800           0
     38681 TIP3     5457     TIP3     H2       HT       0.417000       1.00800           0
     38682 TIP3     5458     TIP3     OH2      OT      -0.834000       15.9994           0
     38683 TIP3     5458     TIP3     H1       HT       0.417000       1.00800           0
     38684 TIP3     5458     TIP3     H2       HT       0.417000       1.00800           0
     38685 TIP3     5459     TIP3     OH2      OT      -0.834000       15.9994           0
     38686 TIP3     5459     TIP3     H1       HT       0.417000       1.00800           0
     38687 TIP3     5459     TIP3     H2       HT       0.417000       1.00800           0
     38688 TIP3     5460     TIP3     OH2      OT      -0.834000       15.9994           0
     38689 TIP3     5460     TIP3     H1       HT       0.417000       1.00800           0
     38690 TIP3     5460     TIP3     H2       HT       0.417000       1.00800           0
     38691 TIP3     5461     TIP3     OH2      OT      -0.834000       15.9994           0
     38692 TIP3     5461     TIP3     H1       HT       0.417000       1.00800           0
     38693 TIP3     5461     TIP3     H2       HT       0.417000       1.00800           0
     38694 TIP3     5462     TIP3     OH2      OT      -0.834000       15.9994           0
     38695 TIP3     5462     TIP3     H1       HT       0.417000       1.00800           0
     38696 TIP3     5462     TIP3     H2       HT       0.417000       1.00800           0
     38697 TIP3     5463     TIP3     OH2      OT      -0.834000       15.9994           0
     38698 TIP3     5463     TIP3     H1       HT       0.417000       1.00800           0
     38699 TIP3     5463     TIP3     H2       HT       0.417000       1.00800           0
     38700 TIP3     5464     TIP3     OH2      OT      -0.834000       15.9994           0
     38701 TIP3     5464     TIP3     H1       HT       0.417000       1.00800           0
     38702 TIP3     5464     TIP3     H2       HT       0.417000       1.00800           0
     38703 TIP3     5465     TIP3     OH2      OT      -0.834000       15.9994           0
     38704 TIP3     5465     TIP3     H1       HT       0.417000       1.00800           0
     38705 TIP3     5465     TIP3     H2       HT       0.417000       1.00800           0
     38706 TIP3     5466     TIP3     OH2      OT      -0.834000       15.9994           0
     38707 TIP3     5466     TIP3     H1       HT       0.417000       1.00800           0
     38708 TIP3     5466     TIP3     H2       HT       0.417000       1.00800           0
     38709 TIP3     5467     TIP3     OH2      OT      -0.834000       15.9994           0
     38710 TIP3     5467     TIP3     H1       HT       0.417000       1.00800           0
     38711 TIP3     5467     TIP3     H2       HT       0.417000       1.00800           0
     38712 TIP3     5468     TIP3     OH2      OT      -0.834000       15.9994           0
     38713 TIP3     5468     TIP3     H1       HT       0.417000       1.00800           0
     38714 TIP3     5468     TIP3     H2       HT       0.417000       1.00800           0
     38715 TIP3     5469     TIP3     OH2      OT      -0.834000       15.9994           0
     38716 TIP3     5469     TIP3     H1       HT       0.417000       1.00800           0
     38717 TIP3     5469     TIP3     H2       HT       0.417000       1.00800           0
     38718 TIP3     5470     TIP3     OH2      OT      -0.834000       15.9994           0
     38719 TIP3     5470     TIP3     H1       HT       0.417000       1.00800           0
     38720 TIP3     5470     TIP3     H2       HT       0.417000       1.00800           0
     38721 TIP3     5471     TIP3     OH2      OT      -0.834000       15.9994           0
     38722 TIP3     5471     TIP3     H1       HT       0.417000       1.00800           0
     38723 TIP3     5471     TIP3     H2       HT       0.417000       1.00800           0
     38724 TIP3     5472     TIP3     OH2      OT      -0.834000       15.9994           0
     38725 TIP3     5472     TIP3     H1       HT       0.417000       1.00800           0
     38726 TIP3     5472     TIP3     H2       HT       0.417000       1.00800           0
     38727 TIP3     5473     TIP3     OH2      OT      -0.834000       15.9994           0
     38728 TIP3     5473     TIP3     H1       HT       0.417000       1.00800           0
     38729 TIP3     5473     TIP3     H2       HT       0.417000       1.00800           0
     38730 TIP3     5474     TIP3     OH2      OT      -0.834000       15.9994           0
     38731 TIP3     5474     TIP3     H1       HT       0.417000       1.00800           0
     38732 TIP3     5474     TIP3     H2       HT       0.417000       1.00800           0
     38733 TIP3     5475     TIP3     OH2      OT      -0.834000       15.9994           0
     38734 TIP3     5475     TIP3     H1       HT       0.417000       1.00800           0
     38735 TIP3     5475     TIP3     H2       HT       0.417000       1.00800           0
     38736 TIP3     5476     TIP3     OH2      OT      -0.834000       15.9994           0
     38737 TIP3     5476     TIP3     H1       HT       0.417000       1.00800           0
     38738 TIP3     5476     TIP3     H2       HT       0.417000       1.00800           0
     38739 TIP3     5477     TIP3     OH2      OT      -0.834000       15.9994           0
     38740 TIP3     5477     TIP3     H1       HT       0.417000       1.00800           0
     38741 TIP3     5477     TIP3     H2       HT       0.417000       1.00800           0
     38742 TIP3     5478     TIP3     OH2      OT      -0.834000       15.9994           0
     38743 TIP3     5478     TIP3     H1       HT       0.417000       1.00800           0
     38744 TIP3     5478     TIP3     H2       HT       0.417000       1.00800           0
     38745 TIP3     5479     TIP3     OH2      OT      -0.834000       15.9994           0
     38746 TIP3     5479     TIP3     H1       HT       0.417000       1.00800           0
     38747 TIP3     5479     TIP3     H2       HT       0.417000       1.00800           0
     38748 TIP3     5480     TIP3     OH2      OT      -0.834000       15.9994           0
     38749 TIP3     5480     TIP3     H1       HT       0.417000       1.00800           0
     38750 TIP3     5480     TIP3     H2       HT       0.417000       1.00800           0
     38751 TIP3     5481     TIP3     OH2      OT      -0.834000       15.9994           0
     38752 TIP3     5481     TIP3     H1       HT       0.417000       1.00800           0
     38753 TIP3     5481     TIP3     H2       HT       0.417000       1.00800           0
     38754 TIP3     5482     TIP3     OH2      OT      -0.834000       15.9994           0
     38755 TIP3     5482     TIP3     H1       HT       0.417000       1.00800           0
     38756 TIP3     5482     TIP3     H2       HT       0.417000       1.00800           0
     38757 TIP3     5483     TIP3     OH2      OT      -0.834000       15.9994           0
     38758 TIP3     5483     TIP3     H1       HT       0.417000       1.00800           0
     38759 TIP3     5483     TIP3     H2       HT       0.417000       1.00800           0
     38760 TIP3     5484     TIP3     OH2      OT      -0.834000       15.9994           0
     38761 TIP3     5484     TIP3     H1       HT       0.417000       1.00800           0
     38762 TIP3     5484     TIP3     H2       HT       0.417000       1.00800           0
     38763 TIP3     5485     TIP3     OH2      OT      -0.834000       15.9994           0
     38764 TIP3     5485     TIP3     H1       HT       0.417000       1.00800           0
     38765 TIP3     5485     TIP3     H2       HT       0.417000       1.00800           0
     38766 TIP3     5486     TIP3     OH2      OT      -0.834000       15.9994           0
     38767 TIP3     5486     TIP3     H1       HT       0.417000       1.00800           0
     38768 TIP3     5486     TIP3     H2       HT       0.417000       1.00800           0
     38769 TIP3     5487     TIP3     OH2      OT      -0.834000       15.9994           0
     38770 TIP3     5487     TIP3     H1       HT       0.417000       1.00800           0
     38771 TIP3     5487     TIP3     H2       HT       0.417000       1.00800           0
     38772 TIP3     5488     TIP3     OH2      OT      -0.834000       15.9994           0
     38773 TIP3     5488     TIP3     H1       HT       0.417000       1.00800           0
     38774 TIP3     5488     TIP3     H2       HT       0.417000       1.00800           0
     38775 TIP3     5489     TIP3     OH2      OT      -0.834000       15.9994           0
     38776 TIP3     5489     TIP3     H1       HT       0.417000       1.00800           0
     38777 TIP3     5489     TIP3     H2       HT       0.417000       1.00800           0
     38778 TIP3     5490     TIP3     OH2      OT      -0.834000       15.9994           0
     38779 TIP3     5490     TIP3     H1       HT       0.417000       1.00800           0
     38780 TIP3     5490     TIP3     H2       HT       0.417000       1.00800           0
     38781 TIP3     5491     TIP3     OH2      OT      -0.834000       15.9994           0
     38782 TIP3     5491     TIP3     H1       HT       0.417000       1.00800           0
     38783 TIP3     5491     TIP3     H2       HT       0.417000       1.00800           0
     38784 TIP3     5492     TIP3     OH2      OT      -0.834000       15.9994           0
     38785 TIP3     5492     TIP3     H1       HT       0.417000       1.00800           0
     38786 TIP3     5492     TIP3     H2       HT       0.417000       1.00800           0
     38787 TIP3     5493     TIP3     OH2      OT      -0.834000       15.9994           0
     38788 TIP3     5493     TIP3     H1       HT       0.417000       1.00800           0
     38789 TIP3     5493     TIP3     H2       HT       0.417000       1.00800           0
     38790 TIP3     5494     TIP3     OH2      OT      -0.834000       15.9994           0
     38791 TIP3     5494     TIP3     H1       HT       0.417000       1.00800           0
     38792 TIP3     5494     TIP3     H2       HT       0.417000       1.00800           0
     38793 TIP3     5495     TIP3     OH2      OT      -0.834000       15.9994           0
     38794 TIP3     5495     TIP3     H1       HT       0.417000       1.00800           0
     38795 TIP3     5495     TIP3     H2       HT       0.417000       1.00800           0
     38796 TIP3     5496     TIP3     OH2      OT      -0.834000       15.9994           0
     38797 TIP3     5496     TIP3     H1       HT       0.417000       1.00800           0
     38798 TIP3     5496     TIP3     H2       HT       0.417000       1.00800           0
     38799 TIP3     5497     TIP3     OH2      OT      -0.834000       15.9994           0
     38800 TIP3     5497     TIP3     H1       HT       0.417000       1.00800           0
     38801 TIP3     5497     TIP3     H2       HT       0.417000       1.00800           0
     38802 TIP3     5498     TIP3     OH2      OT      -0.834000       15.9994           0
     38803 TIP3     5498     TIP3     H1       HT       0.417000       1.00800           0
     38804 TIP3     5498     TIP3     H2       HT       0.417000       1.00800           0
     38805 TIP3     5499     TIP3     OH2      OT      -0.834000       15.9994           0
     38806 TIP3     5499     TIP3     H1       HT       0.417000       1.00800           0
     38807 TIP3     5499     TIP3     H2       HT       0.417000       1.00800           0
     38808 TIP3     5500     TIP3     OH2      OT      -0.834000       15.9994           0
     38809 TIP3     5500     TIP3     H1       HT       0.417000       1.00800           0
     38810 TIP3     5500     TIP3     H2       HT       0.417000       1.00800           0
     38811 TIP3     5501     TIP3     OH2      OT      -0.834000       15.9994           0
     38812 TIP3     5501     TIP3     H1       HT       0.417000       1.00800           0
     38813 TIP3     5501     TIP3     H2       HT       0.417000       1.00800           0
     38814 TIP3     5502     TIP3     OH2      OT      -0.834000       15.9994           0
     38815 TIP3     5502     TIP3     H1       HT       0.417000       1.00800           0
     38816 TIP3     5502     TIP3     H2       HT       0.417000       1.00800           0
     38817 TIP3     5503     TIP3     OH2      OT      -0.834000       15.9994           0
     38818 TIP3     5503     TIP3     H1       HT       0.417000       1.00800           0
     38819 TIP3     5503     TIP3     H2       HT       0.417000       1.00800           0
     38820 TIP3     5504     TIP3     OH2      OT      -0.834000       15.9994           0
     38821 TIP3     5504     TIP3     H1       HT       0.417000       1.00800           0
     38822 TIP3     5504     TIP3     H2       HT       0.417000       1.00800           0
     38823 TIP3     5505     TIP3     OH2      OT      -0.834000       15.9994           0
     38824 TIP3     5505     TIP3     H1       HT       0.417000       1.00800           0
     38825 TIP3     5505     TIP3     H2       HT       0.417000       1.00800           0
     38826 TIP3     5506     TIP3     OH2      OT      -0.834000       15.9994           0
     38827 TIP3     5506     TIP3     H1       HT       0.417000       1.00800           0
     38828 TIP3     5506     TIP3     H2       HT       0.417000       1.00800           0
     38829 TIP3     5507     TIP3     OH2      OT      -0.834000       15.9994           0
     38830 TIP3     5507     TIP3     H1       HT       0.417000       1.00800           0
     38831 TIP3     5507     TIP3     H2       HT       0.417000       1.00800           0
     38832 TIP3     5508     TIP3     OH2      OT      -0.834000       15.9994           0
     38833 TIP3     5508     TIP3     H1       HT       0.417000       1.00800           0
     38834 TIP3     5508     TIP3     H2       HT       0.417000       1.00800           0
     38835 TIP3     5509     TIP3     OH2      OT      -0.834000       15.9994           0
     38836 TIP3     5509     TIP3     H1       HT       0.417000       1.00800           0
     38837 TIP3     5509     TIP3     H2       HT       0.417000       1.00800           0
     38838 TIP3     5510     TIP3     OH2      OT      -0.834000       15.9994           0
     38839 TIP3     5510     TIP3     H1       HT       0.417000       1.00800           0
     38840 TIP3     5510     TIP3     H2       HT       0.417000       1.00800           0
     38841 TIP3     5511     TIP3     OH2      OT      -0.834000       15.9994           0
     38842 TIP3     5511     TIP3     H1       HT       0.417000       1.00800           0
     38843 TIP3     5511     TIP3     H2       HT       0.417000       1.00800           0
     38844 TIP3     5512     TIP3     OH2      OT      -0.834000       15.9994           0
     38845 TIP3     5512     TIP3     H1       HT       0.417000       1.00800           0
     38846 TIP3     5512     TIP3     H2       HT       0.417000       1.00800           0
     38847 TIP3     5513     TIP3     OH2      OT      -0.834000       15.9994           0
     38848 TIP3     5513     TIP3     H1       HT       0.417000       1.00800           0
     38849 TIP3     5513     TIP3     H2       HT       0.417000       1.00800           0
     38850 TIP3     5514     TIP3     OH2      OT      -0.834000       15.9994           0
     38851 TIP3     5514     TIP3     H1       HT       0.417000       1.00800           0
     38852 TIP3     5514     TIP3     H2       HT       0.417000       1.00800           0
     38853 TIP3     5515     TIP3     OH2      OT      -0.834000       15.9994           0
     38854 TIP3     5515     TIP3     H1       HT       0.417000       1.00800           0
     38855 TIP3     5515     TIP3     H2       HT       0.417000       1.00800           0
     38856 TIP3     5516     TIP3     OH2      OT      -0.834000       15.9994           0
     38857 TIP3     5516     TIP3     H1       HT       0.417000       1.00800           0
     38858 TIP3     5516     TIP3     H2       HT       0.417000       1.00800           0
     38859 TIP3     5517     TIP3     OH2      OT      -0.834000       15.9994           0
     38860 TIP3     5517     TIP3     H1       HT       0.417000       1.00800           0
     38861 TIP3     5517     TIP3     H2       HT       0.417000       1.00800           0
     38862 TIP3     5518     TIP3     OH2      OT      -0.834000       15.9994           0
     38863 TIP3     5518     TIP3     H1       HT       0.417000       1.00800           0
     38864 TIP3     5518     TIP3     H2       HT       0.417000       1.00800           0
     38865 TIP3     5519     TIP3     OH2      OT      -0.834000       15.9994           0
     38866 TIP3     5519     TIP3     H1       HT       0.417000       1.00800           0
     38867 TIP3     5519     TIP3     H2       HT       0.417000       1.00800           0
     38868 TIP3     5520     TIP3     OH2      OT      -0.834000       15.9994           0
     38869 TIP3     5520     TIP3     H1       HT       0.417000       1.00800           0
     38870 TIP3     5520     TIP3     H2       HT       0.417000       1.00800           0
     38871 TIP3     5521     TIP3     OH2      OT      -0.834000       15.9994           0
     38872 TIP3     5521     TIP3     H1       HT       0.417000       1.00800           0
     38873 TIP3     5521     TIP3     H2       HT       0.417000       1.00800           0
     38874 TIP3     5522     TIP3     OH2      OT      -0.834000       15.9994           0
     38875 TIP3     5522     TIP3     H1       HT       0.417000       1.00800           0
     38876 TIP3     5522     TIP3     H2       HT       0.417000       1.00800           0
     38877 TIP3     5523     TIP3     OH2      OT      -0.834000       15.9994           0
     38878 TIP3     5523     TIP3     H1       HT       0.417000       1.00800           0
     38879 TIP3     5523     TIP3     H2       HT       0.417000       1.00800           0
     38880 TIP3     5524     TIP3     OH2      OT      -0.834000       15.9994           0
     38881 TIP3     5524     TIP3     H1       HT       0.417000       1.00800           0
     38882 TIP3     5524     TIP3     H2       HT       0.417000       1.00800           0
     38883 TIP3     5525     TIP3     OH2      OT      -0.834000       15.9994           0
     38884 TIP3     5525     TIP3     H1       HT       0.417000       1.00800           0
     38885 TIP3     5525     TIP3     H2       HT       0.417000       1.00800           0
     38886 TIP3     5526     TIP3     OH2      OT      -0.834000       15.9994           0
     38887 TIP3     5526     TIP3     H1       HT       0.417000       1.00800           0
     38888 TIP3     5526     TIP3     H2       HT       0.417000       1.00800           0
     38889 TIP3     5527     TIP3     OH2      OT      -0.834000       15.9994           0
     38890 TIP3     5527     TIP3     H1       HT       0.417000       1.00800           0
     38891 TIP3     5527     TIP3     H2       HT       0.417000       1.00800           0
     38892 TIP3     5528     TIP3     OH2      OT      -0.834000       15.9994           0
     38893 TIP3     5528     TIP3     H1       HT       0.417000       1.00800           0
     38894 TIP3     5528     TIP3     H2       HT       0.417000       1.00800           0
     38895 TIP3     5529     TIP3     OH2      OT      -0.834000       15.9994           0
     38896 TIP3     5529     TIP3     H1       HT       0.417000       1.00800           0
     38897 TIP3     5529     TIP3     H2       HT       0.417000       1.00800           0
     38898 TIP3     5530     TIP3     OH2      OT      -0.834000       15.9994           0
     38899 TIP3     5530     TIP3     H1       HT       0.417000       1.00800           0
     38900 TIP3     5530     TIP3     H2       HT       0.417000       1.00800           0
     38901 TIP3     5531     TIP3     OH2      OT      -0.834000       15.9994           0
     38902 TIP3     5531     TIP3     H1       HT       0.417000       1.00800           0
     38903 TIP3     5531     TIP3     H2       HT       0.417000       1.00800           0
     38904 TIP3     5532     TIP3     OH2      OT      -0.834000       15.9994           0
     38905 TIP3     5532     TIP3     H1       HT       0.417000       1.00800           0
     38906 TIP3     5532     TIP3     H2       HT       0.417000       1.00800           0
     38907 TIP3     5533     TIP3     OH2      OT      -0.834000       15.9994           0
     38908 TIP3     5533     TIP3     H1       HT       0.417000       1.00800           0
     38909 TIP3     5533     TIP3     H2       HT       0.417000       1.00800           0
     38910 TIP3     5534     TIP3     OH2      OT      -0.834000       15.9994           0
     38911 TIP3     5534     TIP3     H1       HT       0.417000       1.00800           0
     38912 TIP3     5534     TIP3     H2       HT       0.417000       1.00800           0
     38913 TIP3     5535     TIP3     OH2      OT      -0.834000       15.9994           0
     38914 TIP3     5535     TIP3     H1       HT       0.417000       1.00800           0
     38915 TIP3     5535     TIP3     H2       HT       0.417000       1.00800           0
     38916 TIP3     5536     TIP3     OH2      OT      -0.834000       15.9994           0
     38917 TIP3     5536     TIP3     H1       HT       0.417000       1.00800           0
     38918 TIP3     5536     TIP3     H2       HT       0.417000       1.00800           0
     38919 TIP3     5537     TIP3     OH2      OT      -0.834000       15.9994           0
     38920 TIP3     5537     TIP3     H1       HT       0.417000       1.00800           0
     38921 TIP3     5537     TIP3     H2       HT       0.417000       1.00800           0
     38922 TIP3     5538     TIP3     OH2      OT      -0.834000       15.9994           0
     38923 TIP3     5538     TIP3     H1       HT       0.417000       1.00800           0
     38924 TIP3     5538     TIP3     H2       HT       0.417000       1.00800           0
     38925 TIP3     5539     TIP3     OH2      OT      -0.834000       15.9994           0
     38926 TIP3     5539     TIP3     H1       HT       0.417000       1.00800           0
     38927 TIP3     5539     TIP3     H2       HT       0.417000       1.00800           0
     38928 TIP3     5540     TIP3     OH2      OT      -0.834000       15.9994           0
     38929 TIP3     5540     TIP3     H1       HT       0.417000       1.00800           0
     38930 TIP3     5540     TIP3     H2       HT       0.417000       1.00800           0
     38931 TIP3     5541     TIP3     OH2      OT      -0.834000       15.9994           0
     38932 TIP3     5541     TIP3     H1       HT       0.417000       1.00800           0
     38933 TIP3     5541     TIP3     H2       HT       0.417000       1.00800           0
     38934 TIP3     5542     TIP3     OH2      OT      -0.834000       15.9994           0
     38935 TIP3     5542     TIP3     H1       HT       0.417000       1.00800           0
     38936 TIP3     5542     TIP3     H2       HT       0.417000       1.00800           0
     38937 TIP3     5543     TIP3     OH2      OT      -0.834000       15.9994           0
     38938 TIP3     5543     TIP3     H1       HT       0.417000       1.00800           0
     38939 TIP3     5543     TIP3     H2       HT       0.417000       1.00800           0
     38940 TIP3     5544     TIP3     OH2      OT      -0.834000       15.9994           0
     38941 TIP3     5544     TIP3     H1       HT       0.417000       1.00800           0
     38942 TIP3     5544     TIP3     H2       HT       0.417000       1.00800           0
     38943 TIP3     5545     TIP3     OH2      OT      -0.834000       15.9994           0
     38944 TIP3     5545     TIP3     H1       HT       0.417000       1.00800           0
     38945 TIP3     5545     TIP3     H2       HT       0.417000       1.00800           0
     38946 TIP3     5546     TIP3     OH2      OT      -0.834000       15.9994           0
     38947 TIP3     5546     TIP3     H1       HT       0.417000       1.00800           0
     38948 TIP3     5546     TIP3     H2       HT       0.417000       1.00800           0
     38949 TIP3     5547     TIP3     OH2      OT      -0.834000       15.9994           0
     38950 TIP3     5547     TIP3     H1       HT       0.417000       1.00800           0
     38951 TIP3     5547     TIP3     H2       HT       0.417000       1.00800           0
     38952 TIP3     5548     TIP3     OH2      OT      -0.834000       15.9994           0
     38953 TIP3     5548     TIP3     H1       HT       0.417000       1.00800           0
     38954 TIP3     5548     TIP3     H2       HT       0.417000       1.00800           0
     38955 TIP3     5549     TIP3     OH2      OT      -0.834000       15.9994           0
     38956 TIP3     5549     TIP3     H1       HT       0.417000       1.00800           0
     38957 TIP3     5549     TIP3     H2       HT       0.417000       1.00800           0
     38958 TIP3     5550     TIP3     OH2      OT      -0.834000       15.9994           0
     38959 TIP3     5550     TIP3     H1       HT       0.417000       1.00800           0
     38960 TIP3     5550     TIP3     H2       HT       0.417000       1.00800           0
     38961 TIP3     5551     TIP3     OH2      OT      -0.834000       15.9994           0
     38962 TIP3     5551     TIP3     H1       HT       0.417000       1.00800           0
     38963 TIP3     5551     TIP3     H2       HT       0.417000       1.00800           0
     38964 TIP3     5552     TIP3     OH2      OT      -0.834000       15.9994           0
     38965 TIP3     5552     TIP3     H1       HT       0.417000       1.00800           0
     38966 TIP3     5552     TIP3     H2       HT       0.417000       1.00800           0
     38967 TIP3     5553     TIP3     OH2      OT      -0.834000       15.9994           0
     38968 TIP3     5553     TIP3     H1       HT       0.417000       1.00800           0
     38969 TIP3     5553     TIP3     H2       HT       0.417000       1.00800           0
     38970 TIP3     5554     TIP3     OH2      OT      -0.834000       15.9994           0
     38971 TIP3     5554     TIP3     H1       HT       0.417000       1.00800           0
     38972 TIP3     5554     TIP3     H2       HT       0.417000       1.00800           0
     38973 TIP3     5555     TIP3     OH2      OT      -0.834000       15.9994           0
     38974 TIP3     5555     TIP3     H1       HT       0.417000       1.00800           0
     38975 TIP3     5555     TIP3     H2       HT       0.417000       1.00800           0
     38976 TIP3     5556     TIP3     OH2      OT      -0.834000       15.9994           0
     38977 TIP3     5556     TIP3     H1       HT       0.417000       1.00800           0
     38978 TIP3     5556     TIP3     H2       HT       0.417000       1.00800           0
     38979 TIP3     5557     TIP3     OH2      OT      -0.834000       15.9994           0
     38980 TIP3     5557     TIP3     H1       HT       0.417000       1.00800           0
     38981 TIP3     5557     TIP3     H2       HT       0.417000       1.00800           0
     38982 TIP3     5558     TIP3     OH2      OT      -0.834000       15.9994           0
     38983 TIP3     5558     TIP3     H1       HT       0.417000       1.00800           0
     38984 TIP3     5558     TIP3     H2       HT       0.417000       1.00800           0
     38985 TIP3     5559     TIP3     OH2      OT      -0.834000       15.9994           0
     38986 TIP3     5559     TIP3     H1       HT       0.417000       1.00800           0
     38987 TIP3     5559     TIP3     H2       HT       0.417000       1.00800           0
     38988 TIP3     5560     TIP3     OH2      OT      -0.834000       15.9994           0
     38989 TIP3     5560     TIP3     H1       HT       0.417000       1.00800           0
     38990 TIP3     5560     TIP3     H2       HT       0.417000       1.00800           0
     38991 TIP3     5561     TIP3     OH2      OT      -0.834000       15.9994           0
     38992 TIP3     5561     TIP3     H1       HT       0.417000       1.00800           0
     38993 TIP3     5561     TIP3     H2       HT       0.417000       1.00800           0
     38994 TIP3     5562     TIP3     OH2      OT      -0.834000       15.9994           0
     38995 TIP3     5562     TIP3     H1       HT       0.417000       1.00800           0
     38996 TIP3     5562     TIP3     H2       HT       0.417000       1.00800           0
     38997 TIP3     5563     TIP3     OH2      OT      -0.834000       15.9994           0
     38998 TIP3     5563     TIP3     H1       HT       0.417000       1.00800           0
     38999 TIP3     5563     TIP3     H2       HT       0.417000       1.00800           0
     39000 TIP3     5564     TIP3     OH2      OT      -0.834000       15.9994           0
     39001 TIP3     5564     TIP3     H1       HT       0.417000       1.00800           0
     39002 TIP3     5564     TIP3     H2       HT       0.417000       1.00800           0
     39003 TIP3     5565     TIP3     OH2      OT      -0.834000       15.9994           0
     39004 TIP3     5565     TIP3     H1       HT       0.417000       1.00800           0
     39005 TIP3     5565     TIP3     H2       HT       0.417000       1.00800           0
     39006 TIP3     5566     TIP3     OH2      OT      -0.834000       15.9994           0
     39007 TIP3     5566     TIP3     H1       HT       0.417000       1.00800           0
     39008 TIP3     5566     TIP3     H2       HT       0.417000       1.00800           0
     39009 TIP3     5567     TIP3     OH2      OT      -0.834000       15.9994           0
     39010 TIP3     5567     TIP3     H1       HT       0.417000       1.00800           0
     39011 TIP3     5567     TIP3     H2       HT       0.417000       1.00800           0
     39012 TIP3     5568     TIP3     OH2      OT      -0.834000       15.9994           0
     39013 TIP3     5568     TIP3     H1       HT       0.417000       1.00800           0
     39014 TIP3     5568     TIP3     H2       HT       0.417000       1.00800           0
     39015 TIP3     5569     TIP3     OH2      OT      -0.834000       15.9994           0
     39016 TIP3     5569     TIP3     H1       HT       0.417000       1.00800           0
     39017 TIP3     5569     TIP3     H2       HT       0.417000       1.00800           0
     39018 TIP3     5570     TIP3     OH2      OT      -0.834000       15.9994           0
     39019 TIP3     5570     TIP3     H1       HT       0.417000       1.00800           0
     39020 TIP3     5570     TIP3     H2       HT       0.417000       1.00800           0
     39021 TIP3     5571     TIP3     OH2      OT      -0.834000       15.9994           0
     39022 TIP3     5571     TIP3     H1       HT       0.417000       1.00800           0
     39023 TIP3     5571     TIP3     H2       HT       0.417000       1.00800           0
     39024 TIP3     5572     TIP3     OH2      OT      -0.834000       15.9994           0
     39025 TIP3     5572     TIP3     H1       HT       0.417000       1.00800           0
     39026 TIP3     5572     TIP3     H2       HT       0.417000       1.00800           0
     39027 TIP3     5573     TIP3     OH2      OT      -0.834000       15.9994           0
     39028 TIP3     5573     TIP3     H1       HT       0.417000       1.00800           0
     39029 TIP3     5573     TIP3     H2       HT       0.417000       1.00800           0
     39030 TIP3     5574     TIP3     OH2      OT      -0.834000       15.9994           0
     39031 TIP3     5574     TIP3     H1       HT       0.417000       1.00800           0
     39032 TIP3     5574     TIP3     H2       HT       0.417000       1.00800           0
     39033 TIP3     5575     TIP3     OH2      OT      -0.834000       15.9994           0
     39034 TIP3     5575     TIP3     H1       HT       0.417000       1.00800           0
     39035 TIP3     5575     TIP3     H2       HT       0.417000       1.00800           0
     39036 TIP3     5576     TIP3     OH2      OT      -0.834000       15.9994           0
     39037 TIP3     5576     TIP3     H1       HT       0.417000       1.00800           0
     39038 TIP3     5576     TIP3     H2       HT       0.417000       1.00800           0
     39039 TIP3     5577     TIP3     OH2      OT      -0.834000       15.9994           0
     39040 TIP3     5577     TIP3     H1       HT       0.417000       1.00800           0
     39041 TIP3     5577     TIP3     H2       HT       0.417000       1.00800           0
     39042 TIP3     5578     TIP3     OH2      OT      -0.834000       15.9994           0
     39043 TIP3     5578     TIP3     H1       HT       0.417000       1.00800           0
     39044 TIP3     5578     TIP3     H2       HT       0.417000       1.00800           0
     39045 TIP3     5579     TIP3     OH2      OT      -0.834000       15.9994           0
     39046 TIP3     5579     TIP3     H1       HT       0.417000       1.00800           0
     39047 TIP3     5579     TIP3     H2       HT       0.417000       1.00800           0
     39048 TIP3     5580     TIP3     OH2      OT      -0.834000       15.9994           0
     39049 TIP3     5580     TIP3     H1       HT       0.417000       1.00800           0
     39050 TIP3     5580     TIP3     H2       HT       0.417000       1.00800           0
     39051 TIP3     5581     TIP3     OH2      OT      -0.834000       15.9994           0
     39052 TIP3     5581     TIP3     H1       HT       0.417000       1.00800           0
     39053 TIP3     5581     TIP3     H2       HT       0.417000       1.00800           0
     39054 TIP3     5582     TIP3     OH2      OT      -0.834000       15.9994           0
     39055 TIP3     5582     TIP3     H1       HT       0.417000       1.00800           0
     39056 TIP3     5582     TIP3     H2       HT       0.417000       1.00800           0
     39057 TIP3     5583     TIP3     OH2      OT      -0.834000       15.9994           0
     39058 TIP3     5583     TIP3     H1       HT       0.417000       1.00800           0
     39059 TIP3     5583     TIP3     H2       HT       0.417000       1.00800           0
     39060 TIP3     5584     TIP3     OH2      OT      -0.834000       15.9994           0
     39061 TIP3     5584     TIP3     H1       HT       0.417000       1.00800           0
     39062 TIP3     5584     TIP3     H2       HT       0.417000       1.00800           0
     39063 TIP3     5585     TIP3     OH2      OT      -0.834000       15.9994           0
     39064 TIP3     5585     TIP3     H1       HT       0.417000       1.00800           0
     39065 TIP3     5585     TIP3     H2       HT       0.417000       1.00800           0
     39066 TIP3     5586     TIP3     OH2      OT      -0.834000       15.9994           0
     39067 TIP3     5586     TIP3     H1       HT       0.417000       1.00800           0
     39068 TIP3     5586     TIP3     H2       HT       0.417000       1.00800           0
     39069 TIP3     5587     TIP3     OH2      OT      -0.834000       15.9994           0
     39070 TIP3     5587     TIP3     H1       HT       0.417000       1.00800           0
     39071 TIP3     5587     TIP3     H2       HT       0.417000       1.00800           0
     39072 TIP3     5588     TIP3     OH2      OT      -0.834000       15.9994           0
     39073 TIP3     5588     TIP3     H1       HT       0.417000       1.00800           0
     39074 TIP3     5588     TIP3     H2       HT       0.417000       1.00800           0
     39075 TIP3     5589     TIP3     OH2      OT      -0.834000       15.9994           0
     39076 TIP3     5589     TIP3     H1       HT       0.417000       1.00800           0
     39077 TIP3     5589     TIP3     H2       HT       0.417000       1.00800           0
     39078 TIP3     5590     TIP3     OH2      OT      -0.834000       15.9994           0
     39079 TIP3     5590     TIP3     H1       HT       0.417000       1.00800           0
     39080 TIP3     5590     TIP3     H2       HT       0.417000       1.00800           0
     39081 TIP3     5591     TIP3     OH2      OT      -0.834000       15.9994           0
     39082 TIP3     5591     TIP3     H1       HT       0.417000       1.00800           0
     39083 TIP3     5591     TIP3     H2       HT       0.417000       1.00800           0
     39084 TIP3     5592     TIP3     OH2      OT      -0.834000       15.9994           0
     39085 TIP3     5592     TIP3     H1       HT       0.417000       1.00800           0
     39086 TIP3     5592     TIP3     H2       HT       0.417000       1.00800           0
     39087 TIP3     5593     TIP3     OH2      OT      -0.834000       15.9994           0
     39088 TIP3     5593     TIP3     H1       HT       0.417000       1.00800           0
     39089 TIP3     5593     TIP3     H2       HT       0.417000       1.00800           0
     39090 TIP3     5594     TIP3     OH2      OT      -0.834000       15.9994           0
     39091 TIP3     5594     TIP3     H1       HT       0.417000       1.00800           0
     39092 TIP3     5594     TIP3     H2       HT       0.417000       1.00800           0
     39093 TIP3     5595     TIP3     OH2      OT      -0.834000       15.9994           0
     39094 TIP3     5595     TIP3     H1       HT       0.417000       1.00800           0
     39095 TIP3     5595     TIP3     H2       HT       0.417000       1.00800           0
     39096 TIP3     5596     TIP3     OH2      OT      -0.834000       15.9994           0
     39097 TIP3     5596     TIP3     H1       HT       0.417000       1.00800           0
     39098 TIP3     5596     TIP3     H2       HT       0.417000       1.00800           0
     39099 TIP3     5597     TIP3     OH2      OT      -0.834000       15.9994           0
     39100 TIP3     5597     TIP3     H1       HT       0.417000       1.00800           0
     39101 TIP3     5597     TIP3     H2       HT       0.417000       1.00800           0
     39102 TIP3     5598     TIP3     OH2      OT      -0.834000       15.9994           0
     39103 TIP3     5598     TIP3     H1       HT       0.417000       1.00800           0
     39104 TIP3     5598     TIP3     H2       HT       0.417000       1.00800           0
     39105 TIP3     5599     TIP3     OH2      OT      -0.834000       15.9994           0
     39106 TIP3     5599     TIP3     H1       HT       0.417000       1.00800           0
     39107 TIP3     5599     TIP3     H2       HT       0.417000       1.00800           0
     39108 TIP3     5600     TIP3     OH2      OT      -0.834000       15.9994           0
     39109 TIP3     5600     TIP3     H1       HT       0.417000       1.00800           0
     39110 TIP3     5600     TIP3     H2       HT       0.417000       1.00800           0
     39111 TIP3     5601     TIP3     OH2      OT      -0.834000       15.9994           0
     39112 TIP3     5601     TIP3     H1       HT       0.417000       1.00800           0
     39113 TIP3     5601     TIP3     H2       HT       0.417000       1.00800           0
     39114 TIP3     5602     TIP3     OH2      OT      -0.834000       15.9994           0
     39115 TIP3     5602     TIP3     H1       HT       0.417000       1.00800           0
     39116 TIP3     5602     TIP3     H2       HT       0.417000       1.00800           0
     39117 TIP3     5603     TIP3     OH2      OT      -0.834000       15.9994           0
     39118 TIP3     5603     TIP3     H1       HT       0.417000       1.00800           0
     39119 TIP3     5603     TIP3     H2       HT       0.417000       1.00800           0
     39120 TIP3     5604     TIP3     OH2      OT      -0.834000       15.9994           0
     39121 TIP3     5604     TIP3     H1       HT       0.417000       1.00800           0
     39122 TIP3     5604     TIP3     H2       HT       0.417000       1.00800           0
     39123 TIP3     5605     TIP3     OH2      OT      -0.834000       15.9994           0
     39124 TIP3     5605     TIP3     H1       HT       0.417000       1.00800           0
     39125 TIP3     5605     TIP3     H2       HT       0.417000       1.00800           0
     39126 TIP3     5606     TIP3     OH2      OT      -0.834000       15.9994           0
     39127 TIP3     5606     TIP3     H1       HT       0.417000       1.00800           0
     39128 TIP3     5606     TIP3     H2       HT       0.417000       1.00800           0
     39129 TIP3     5607     TIP3     OH2      OT      -0.834000       15.9994           0
     39130 TIP3     5607     TIP3     H1       HT       0.417000       1.00800           0
     39131 TIP3     5607     TIP3     H2       HT       0.417000       1.00800           0
     39132 TIP3     5608     TIP3     OH2      OT      -0.834000       15.9994           0
     39133 TIP3     5608     TIP3     H1       HT       0.417000       1.00800           0
     39134 TIP3     5608     TIP3     H2       HT       0.417000       1.00800           0
     39135 TIP3     5609     TIP3     OH2      OT      -0.834000       15.9994           0
     39136 TIP3     5609     TIP3     H1       HT       0.417000       1.00800           0
     39137 TIP3     5609     TIP3     H2       HT       0.417000       1.00800           0
     39138 TIP3     5610     TIP3     OH2      OT      -0.834000       15.9994           0
     39139 TIP3     5610     TIP3     H1       HT       0.417000       1.00800           0
     39140 TIP3     5610     TIP3     H2       HT       0.417000       1.00800           0
     39141 TIP3     5611     TIP3     OH2      OT      -0.834000       15.9994           0
     39142 TIP3     5611     TIP3     H1       HT       0.417000       1.00800           0
     39143 TIP3     5611     TIP3     H2       HT       0.417000       1.00800           0
     39144 TIP3     5612     TIP3     OH2      OT      -0.834000       15.9994           0
     39145 TIP3     5612     TIP3     H1       HT       0.417000       1.00800           0
     39146 TIP3     5612     TIP3     H2       HT       0.417000       1.00800           0
     39147 TIP3     5613     TIP3     OH2      OT      -0.834000       15.9994           0
     39148 TIP3     5613     TIP3     H1       HT       0.417000       1.00800           0
     39149 TIP3     5613     TIP3     H2       HT       0.417000       1.00800           0
     39150 TIP3     5614     TIP3     OH2      OT      -0.834000       15.9994           0
     39151 TIP3     5614     TIP3     H1       HT       0.417000       1.00800           0
     39152 TIP3     5614     TIP3     H2       HT       0.417000       1.00800           0
     39153 TIP3     5615     TIP3     OH2      OT      -0.834000       15.9994           0
     39154 TIP3     5615     TIP3     H1       HT       0.417000       1.00800           0
     39155 TIP3     5615     TIP3     H2       HT       0.417000       1.00800           0
     39156 TIP3     5616     TIP3     OH2      OT      -0.834000       15.9994           0
     39157 TIP3     5616     TIP3     H1       HT       0.417000       1.00800           0
     39158 TIP3     5616     TIP3     H2       HT       0.417000       1.00800           0
     39159 TIP3     5617     TIP3     OH2      OT      -0.834000       15.9994           0
     39160 TIP3     5617     TIP3     H1       HT       0.417000       1.00800           0
     39161 TIP3     5617     TIP3     H2       HT       0.417000       1.00800           0
     39162 TIP3     5618     TIP3     OH2      OT      -0.834000       15.9994           0
     39163 TIP3     5618     TIP3     H1       HT       0.417000       1.00800           0
     39164 TIP3     5618     TIP3     H2       HT       0.417000       1.00800           0
     39165 TIP3     5619     TIP3     OH2      OT      -0.834000       15.9994           0
     39166 TIP3     5619     TIP3     H1       HT       0.417000       1.00800           0
     39167 TIP3     5619     TIP3     H2       HT       0.417000       1.00800           0
     39168 TIP3     5620     TIP3     OH2      OT      -0.834000       15.9994           0
     39169 TIP3     5620     TIP3     H1       HT       0.417000       1.00800           0
     39170 TIP3     5620     TIP3     H2       HT       0.417000       1.00800           0
     39171 TIP3     5621     TIP3     OH2      OT      -0.834000       15.9994           0
     39172 TIP3     5621     TIP3     H1       HT       0.417000       1.00800           0
     39173 TIP3     5621     TIP3     H2       HT       0.417000       1.00800           0
     39174 TIP3     5622     TIP3     OH2      OT      -0.834000       15.9994           0
     39175 TIP3     5622     TIP3     H1       HT       0.417000       1.00800           0
     39176 TIP3     5622     TIP3     H2       HT       0.417000       1.00800           0
     39177 TIP3     5623     TIP3     OH2      OT      -0.834000       15.9994           0
     39178 TIP3     5623     TIP3     H1       HT       0.417000       1.00800           0
     39179 TIP3     5623     TIP3     H2       HT       0.417000       1.00800           0
     39180 TIP3     5624     TIP3     OH2      OT      -0.834000       15.9994           0
     39181 TIP3     5624     TIP3     H1       HT       0.417000       1.00800           0
     39182 TIP3     5624     TIP3     H2       HT       0.417000       1.00800           0
     39183 TIP3     5625     TIP3     OH2      OT      -0.834000       15.9994           0
     39184 TIP3     5625     TIP3     H1       HT       0.417000       1.00800           0
     39185 TIP3     5625     TIP3     H2       HT       0.417000       1.00800           0
     39186 TIP3     5626     TIP3     OH2      OT      -0.834000       15.9994           0
     39187 TIP3     5626     TIP3     H1       HT       0.417000       1.00800           0
     39188 TIP3     5626     TIP3     H2       HT       0.417000       1.00800           0
     39189 TIP3     5627     TIP3     OH2      OT      -0.834000       15.9994           0
     39190 TIP3     5627     TIP3     H1       HT       0.417000       1.00800           0
     39191 TIP3     5627     TIP3     H2       HT       0.417000       1.00800           0
     39192 TIP3     5628     TIP3     OH2      OT      -0.834000       15.9994           0
     39193 TIP3     5628     TIP3     H1       HT       0.417000       1.00800           0
     39194 TIP3     5628     TIP3     H2       HT       0.417000       1.00800           0
     39195 TIP3     5629     TIP3     OH2      OT      -0.834000       15.9994           0
     39196 TIP3     5629     TIP3     H1       HT       0.417000       1.00800           0
     39197 TIP3     5629     TIP3     H2       HT       0.417000       1.00800           0
     39198 TIP3     5630     TIP3     OH2      OT      -0.834000       15.9994           0
     39199 TIP3     5630     TIP3     H1       HT       0.417000       1.00800           0
     39200 TIP3     5630     TIP3     H2       HT       0.417000       1.00800           0
     39201 TIP3     5631     TIP3     OH2      OT      -0.834000       15.9994           0
     39202 TIP3     5631     TIP3     H1       HT       0.417000       1.00800           0
     39203 TIP3     5631     TIP3     H2       HT       0.417000       1.00800           0
     39204 TIP3     5632     TIP3     OH2      OT      -0.834000       15.9994           0
     39205 TIP3     5632     TIP3     H1       HT       0.417000       1.00800           0
     39206 TIP3     5632     TIP3     H2       HT       0.417000       1.00800           0
     39207 TIP3     5633     TIP3     OH2      OT      -0.834000       15.9994           0
     39208 TIP3     5633     TIP3     H1       HT       0.417000       1.00800           0
     39209 TIP3     5633     TIP3     H2       HT       0.417000       1.00800           0
     39210 TIP3     5634     TIP3     OH2      OT      -0.834000       15.9994           0
     39211 TIP3     5634     TIP3     H1       HT       0.417000       1.00800           0
     39212 TIP3     5634     TIP3     H2       HT       0.417000       1.00800           0
     39213 TIP3     5635     TIP3     OH2      OT      -0.834000       15.9994           0
     39214 TIP3     5635     TIP3     H1       HT       0.417000       1.00800           0
     39215 TIP3     5635     TIP3     H2       HT       0.417000       1.00800           0
     39216 TIP3     5636     TIP3     OH2      OT      -0.834000       15.9994           0
     39217 TIP3     5636     TIP3     H1       HT       0.417000       1.00800           0
     39218 TIP3     5636     TIP3     H2       HT       0.417000       1.00800           0
     39219 TIP3     5637     TIP3     OH2      OT      -0.834000       15.9994           0
     39220 TIP3     5637     TIP3     H1       HT       0.417000       1.00800           0
     39221 TIP3     5637     TIP3     H2       HT       0.417000       1.00800           0
     39222 TIP3     5638     TIP3     OH2      OT      -0.834000       15.9994           0
     39223 TIP3     5638     TIP3     H1       HT       0.417000       1.00800           0
     39224 TIP3     5638     TIP3     H2       HT       0.417000       1.00800           0
     39225 TIP3     5639     TIP3     OH2      OT      -0.834000       15.9994           0
     39226 TIP3     5639     TIP3     H1       HT       0.417000       1.00800           0
     39227 TIP3     5639     TIP3     H2       HT       0.417000       1.00800           0
     39228 TIP3     5640     TIP3     OH2      OT      -0.834000       15.9994           0
     39229 TIP3     5640     TIP3     H1       HT       0.417000       1.00800           0
     39230 TIP3     5640     TIP3     H2       HT       0.417000       1.00800           0
     39231 TIP3     5641     TIP3     OH2      OT      -0.834000       15.9994           0
     39232 TIP3     5641     TIP3     H1       HT       0.417000       1.00800           0
     39233 TIP3     5641     TIP3     H2       HT       0.417000       1.00800           0
     39234 TIP3     5642     TIP3     OH2      OT      -0.834000       15.9994           0
     39235 TIP3     5642     TIP3     H1       HT       0.417000       1.00800           0
     39236 TIP3     5642     TIP3     H2       HT       0.417000       1.00800           0
     39237 TIP3     5643     TIP3     OH2      OT      -0.834000       15.9994           0
     39238 TIP3     5643     TIP3     H1       HT       0.417000       1.00800           0
     39239 TIP3     5643     TIP3     H2       HT       0.417000       1.00800           0
     39240 TIP3     5644     TIP3     OH2      OT      -0.834000       15.9994           0
     39241 TIP3     5644     TIP3     H1       HT       0.417000       1.00800           0
     39242 TIP3     5644     TIP3     H2       HT       0.417000       1.00800           0
     39243 TIP3     5645     TIP3     OH2      OT      -0.834000       15.9994           0
     39244 TIP3     5645     TIP3     H1       HT       0.417000       1.00800           0
     39245 TIP3     5645     TIP3     H2       HT       0.417000       1.00800           0
     39246 TIP3     5646     TIP3     OH2      OT      -0.834000       15.9994           0
     39247 TIP3     5646     TIP3     H1       HT       0.417000       1.00800           0
     39248 TIP3     5646     TIP3     H2       HT       0.417000       1.00800           0
     39249 TIP3     5647     TIP3     OH2      OT      -0.834000       15.9994           0
     39250 TIP3     5647     TIP3     H1       HT       0.417000       1.00800           0
     39251 TIP3     5647     TIP3     H2       HT       0.417000       1.00800           0
     39252 TIP3     5648     TIP3     OH2      OT      -0.834000       15.9994           0
     39253 TIP3     5648     TIP3     H1       HT       0.417000       1.00800           0
     39254 TIP3     5648     TIP3     H2       HT       0.417000       1.00800           0
     39255 TIP3     5649     TIP3     OH2      OT      -0.834000       15.9994           0
     39256 TIP3     5649     TIP3     H1       HT       0.417000       1.00800           0
     39257 TIP3     5649     TIP3     H2       HT       0.417000       1.00800           0
     39258 TIP3     5650     TIP3     OH2      OT      -0.834000       15.9994           0
     39259 TIP3     5650     TIP3     H1       HT       0.417000       1.00800           0
     39260 TIP3     5650     TIP3     H2       HT       0.417000       1.00800           0
     39261 TIP3     5651     TIP3     OH2      OT      -0.834000       15.9994           0
     39262 TIP3     5651     TIP3     H1       HT       0.417000       1.00800           0
     39263 TIP3     5651     TIP3     H2       HT       0.417000       1.00800           0
     39264 TIP3     5652     TIP3     OH2      OT      -0.834000       15.9994           0
     39265 TIP3     5652     TIP3     H1       HT       0.417000       1.00800           0
     39266 TIP3     5652     TIP3     H2       HT       0.417000       1.00800           0
     39267 TIP3     5653     TIP3     OH2      OT      -0.834000       15.9994           0
     39268 TIP3     5653     TIP3     H1       HT       0.417000       1.00800           0
     39269 TIP3     5653     TIP3     H2       HT       0.417000       1.00800           0
     39270 TIP3     5654     TIP3     OH2      OT      -0.834000       15.9994           0
     39271 TIP3     5654     TIP3     H1       HT       0.417000       1.00800           0
     39272 TIP3     5654     TIP3     H2       HT       0.417000       1.00800           0
     39273 TIP3     5655     TIP3     OH2      OT      -0.834000       15.9994           0
     39274 TIP3     5655     TIP3     H1       HT       0.417000       1.00800           0
     39275 TIP3     5655     TIP3     H2       HT       0.417000       1.00800           0
     39276 TIP3     5656     TIP3     OH2      OT      -0.834000       15.9994           0
     39277 TIP3     5656     TIP3     H1       HT       0.417000       1.00800           0
     39278 TIP3     5656     TIP3     H2       HT       0.417000       1.00800           0
     39279 TIP3     5657     TIP3     OH2      OT      -0.834000       15.9994           0
     39280 TIP3     5657     TIP3     H1       HT       0.417000       1.00800           0
     39281 TIP3     5657     TIP3     H2       HT       0.417000       1.00800           0
     39282 TIP3     5658     TIP3     OH2      OT      -0.834000       15.9994           0
     39283 TIP3     5658     TIP3     H1       HT       0.417000       1.00800           0
     39284 TIP3     5658     TIP3     H2       HT       0.417000       1.00800           0
     39285 TIP3     5659     TIP3     OH2      OT      -0.834000       15.9994           0
     39286 TIP3     5659     TIP3     H1       HT       0.417000       1.00800           0
     39287 TIP3     5659     TIP3     H2       HT       0.417000       1.00800           0
     39288 TIP3     5660     TIP3     OH2      OT      -0.834000       15.9994           0
     39289 TIP3     5660     TIP3     H1       HT       0.417000       1.00800           0
     39290 TIP3     5660     TIP3     H2       HT       0.417000       1.00800           0
     39291 TIP3     5661     TIP3     OH2      OT      -0.834000       15.9994           0
     39292 TIP3     5661     TIP3     H1       HT       0.417000       1.00800           0
     39293 TIP3     5661     TIP3     H2       HT       0.417000       1.00800           0
     39294 TIP3     5662     TIP3     OH2      OT      -0.834000       15.9994           0
     39295 TIP3     5662     TIP3     H1       HT       0.417000       1.00800           0
     39296 TIP3     5662     TIP3     H2       HT       0.417000       1.00800           0
     39297 TIP3     5663     TIP3     OH2      OT      -0.834000       15.9994           0
     39298 TIP3     5663     TIP3     H1       HT       0.417000       1.00800           0
     39299 TIP3     5663     TIP3     H2       HT       0.417000       1.00800           0
     39300 TIP3     5664     TIP3     OH2      OT      -0.834000       15.9994           0
     39301 TIP3     5664     TIP3     H1       HT       0.417000       1.00800           0
     39302 TIP3     5664     TIP3     H2       HT       0.417000       1.00800           0
     39303 TIP3     5665     TIP3     OH2      OT      -0.834000       15.9994           0
     39304 TIP3     5665     TIP3     H1       HT       0.417000       1.00800           0
     39305 TIP3     5665     TIP3     H2       HT       0.417000       1.00800           0
     39306 TIP3     5666     TIP3     OH2      OT      -0.834000       15.9994           0
     39307 TIP3     5666     TIP3     H1       HT       0.417000       1.00800           0
     39308 TIP3     5666     TIP3     H2       HT       0.417000       1.00800           0
     39309 TIP3     5667     TIP3     OH2      OT      -0.834000       15.9994           0
     39310 TIP3     5667     TIP3     H1       HT       0.417000       1.00800           0
     39311 TIP3     5667     TIP3     H2       HT       0.417000       1.00800           0
     39312 TIP3     5668     TIP3     OH2      OT      -0.834000       15.9994           0
     39313 TIP3     5668     TIP3     H1       HT       0.417000       1.00800           0
     39314 TIP3     5668     TIP3     H2       HT       0.417000       1.00800           0
     39315 TIP3     5669     TIP3     OH2      OT      -0.834000       15.9994           0
     39316 TIP3     5669     TIP3     H1       HT       0.417000       1.00800           0
     39317 TIP3     5669     TIP3     H2       HT       0.417000       1.00800           0
     39318 TIP3     5670     TIP3     OH2      OT      -0.834000       15.9994           0
     39319 TIP3     5670     TIP3     H1       HT       0.417000       1.00800           0
     39320 TIP3     5670     TIP3     H2       HT       0.417000       1.00800           0
     39321 TIP3     5671     TIP3     OH2      OT      -0.834000       15.9994           0
     39322 TIP3     5671     TIP3     H1       HT       0.417000       1.00800           0
     39323 TIP3     5671     TIP3     H2       HT       0.417000       1.00800           0
     39324 TIP3     5672     TIP3     OH2      OT      -0.834000       15.9994           0
     39325 TIP3     5672     TIP3     H1       HT       0.417000       1.00800           0
     39326 TIP3     5672     TIP3     H2       HT       0.417000       1.00800           0
     39327 TIP3     5673     TIP3     OH2      OT      -0.834000       15.9994           0
     39328 TIP3     5673     TIP3     H1       HT       0.417000       1.00800           0
     39329 TIP3     5673     TIP3     H2       HT       0.417000       1.00800           0
     39330 TIP3     5674     TIP3     OH2      OT      -0.834000       15.9994           0
     39331 TIP3     5674     TIP3     H1       HT       0.417000       1.00800           0
     39332 TIP3     5674     TIP3     H2       HT       0.417000       1.00800           0
     39333 TIP3     5675     TIP3     OH2      OT      -0.834000       15.9994           0
     39334 TIP3     5675     TIP3     H1       HT       0.417000       1.00800           0
     39335 TIP3     5675     TIP3     H2       HT       0.417000       1.00800           0
     39336 TIP3     5676     TIP3     OH2      OT      -0.834000       15.9994           0
     39337 TIP3     5676     TIP3     H1       HT       0.417000       1.00800           0
     39338 TIP3     5676     TIP3     H2       HT       0.417000       1.00800           0
     39339 TIP3     5677     TIP3     OH2      OT      -0.834000       15.9994           0
     39340 TIP3     5677     TIP3     H1       HT       0.417000       1.00800           0
     39341 TIP3     5677     TIP3     H2       HT       0.417000       1.00800           0
     39342 TIP3     5678     TIP3     OH2      OT      -0.834000       15.9994           0
     39343 TIP3     5678     TIP3     H1       HT       0.417000       1.00800           0
     39344 TIP3     5678     TIP3     H2       HT       0.417000       1.00800           0
     39345 TIP3     5679     TIP3     OH2      OT      -0.834000       15.9994           0
     39346 TIP3     5679     TIP3     H1       HT       0.417000       1.00800           0
     39347 TIP3     5679     TIP3     H2       HT       0.417000       1.00800           0
     39348 TIP3     5680     TIP3     OH2      OT      -0.834000       15.9994           0
     39349 TIP3     5680     TIP3     H1       HT       0.417000       1.00800           0
     39350 TIP3     5680     TIP3     H2       HT       0.417000       1.00800           0
     39351 TIP3     5681     TIP3     OH2      OT      -0.834000       15.9994           0
     39352 TIP3     5681     TIP3     H1       HT       0.417000       1.00800           0
     39353 TIP3     5681     TIP3     H2       HT       0.417000       1.00800           0
     39354 TIP3     5682     TIP3     OH2      OT      -0.834000       15.9994           0
     39355 TIP3     5682     TIP3     H1       HT       0.417000       1.00800           0
     39356 TIP3     5682     TIP3     H2       HT       0.417000       1.00800           0
     39357 TIP3     5683     TIP3     OH2      OT      -0.834000       15.9994           0
     39358 TIP3     5683     TIP3     H1       HT       0.417000       1.00800           0
     39359 TIP3     5683     TIP3     H2       HT       0.417000       1.00800           0
     39360 TIP3     5684     TIP3     OH2      OT      -0.834000       15.9994           0
     39361 TIP3     5684     TIP3     H1       HT       0.417000       1.00800           0
     39362 TIP3     5684     TIP3     H2       HT       0.417000       1.00800           0
     39363 TIP3     5685     TIP3     OH2      OT      -0.834000       15.9994           0
     39364 TIP3     5685     TIP3     H1       HT       0.417000       1.00800           0
     39365 TIP3     5685     TIP3     H2       HT       0.417000       1.00800           0
     39366 TIP3     5686     TIP3     OH2      OT      -0.834000       15.9994           0
     39367 TIP3     5686     TIP3     H1       HT       0.417000       1.00800           0
     39368 TIP3     5686     TIP3     H2       HT       0.417000       1.00800           0
     39369 TIP3     5687     TIP3     OH2      OT      -0.834000       15.9994           0
     39370 TIP3     5687     TIP3     H1       HT       0.417000       1.00800           0
     39371 TIP3     5687     TIP3     H2       HT       0.417000       1.00800           0
     39372 TIP3     5688     TIP3     OH2      OT      -0.834000       15.9994           0
     39373 TIP3     5688     TIP3     H1       HT       0.417000       1.00800           0
     39374 TIP3     5688     TIP3     H2       HT       0.417000       1.00800           0
     39375 TIP3     5689     TIP3     OH2      OT      -0.834000       15.9994           0
     39376 TIP3     5689     TIP3     H1       HT       0.417000       1.00800           0
     39377 TIP3     5689     TIP3     H2       HT       0.417000       1.00800           0
     39378 TIP3     5690     TIP3     OH2      OT      -0.834000       15.9994           0
     39379 TIP3     5690     TIP3     H1       HT       0.417000       1.00800           0
     39380 TIP3     5690     TIP3     H2       HT       0.417000       1.00800           0
     39381 TIP3     5691     TIP3     OH2      OT      -0.834000       15.9994           0
     39382 TIP3     5691     TIP3     H1       HT       0.417000       1.00800           0
     39383 TIP3     5691     TIP3     H2       HT       0.417000       1.00800           0
     39384 TIP3     5692     TIP3     OH2      OT      -0.834000       15.9994           0
     39385 TIP3     5692     TIP3     H1       HT       0.417000       1.00800           0
     39386 TIP3     5692     TIP3     H2       HT       0.417000       1.00800           0
     39387 TIP3     5693     TIP3     OH2      OT      -0.834000       15.9994           0
     39388 TIP3     5693     TIP3     H1       HT       0.417000       1.00800           0
     39389 TIP3     5693     TIP3     H2       HT       0.417000       1.00800           0
     39390 TIP3     5694     TIP3     OH2      OT      -0.834000       15.9994           0
     39391 TIP3     5694     TIP3     H1       HT       0.417000       1.00800           0
     39392 TIP3     5694     TIP3     H2       HT       0.417000       1.00800           0
     39393 TIP3     5695     TIP3     OH2      OT      -0.834000       15.9994           0
     39394 TIP3     5695     TIP3     H1       HT       0.417000       1.00800           0
     39395 TIP3     5695     TIP3     H2       HT       0.417000       1.00800           0
     39396 TIP3     5696     TIP3     OH2      OT      -0.834000       15.9994           0
     39397 TIP3     5696     TIP3     H1       HT       0.417000       1.00800           0
     39398 TIP3     5696     TIP3     H2       HT       0.417000       1.00800           0
     39399 TIP3     5697     TIP3     OH2      OT      -0.834000       15.9994           0
     39400 TIP3     5697     TIP3     H1       HT       0.417000       1.00800           0
     39401 TIP3     5697     TIP3     H2       HT       0.417000       1.00800           0
     39402 TIP3     5698     TIP3     OH2      OT      -0.834000       15.9994           0
     39403 TIP3     5698     TIP3     H1       HT       0.417000       1.00800           0
     39404 TIP3     5698     TIP3     H2       HT       0.417000       1.00800           0
     39405 TIP3     5699     TIP3     OH2      OT      -0.834000       15.9994           0
     39406 TIP3     5699     TIP3     H1       HT       0.417000       1.00800           0
     39407 TIP3     5699     TIP3     H2       HT       0.417000       1.00800           0
     39408 TIP3     5700     TIP3     OH2      OT      -0.834000       15.9994           0
     39409 TIP3     5700     TIP3     H1       HT       0.417000       1.00800           0
     39410 TIP3     5700     TIP3     H2       HT       0.417000       1.00800           0
     39411 TIP3     5701     TIP3     OH2      OT      -0.834000       15.9994           0
     39412 TIP3     5701     TIP3     H1       HT       0.417000       1.00800           0
     39413 TIP3     5701     TIP3     H2       HT       0.417000       1.00800           0
     39414 TIP3     5702     TIP3     OH2      OT      -0.834000       15.9994           0
     39415 TIP3     5702     TIP3     H1       HT       0.417000       1.00800           0
     39416 TIP3     5702     TIP3     H2       HT       0.417000       1.00800           0
     39417 TIP3     5703     TIP3     OH2      OT      -0.834000       15.9994           0
     39418 TIP3     5703     TIP3     H1       HT       0.417000       1.00800           0
     39419 TIP3     5703     TIP3     H2       HT       0.417000       1.00800           0
     39420 TIP3     5704     TIP3     OH2      OT      -0.834000       15.9994           0
     39421 TIP3     5704     TIP3     H1       HT       0.417000       1.00800           0
     39422 TIP3     5704     TIP3     H2       HT       0.417000       1.00800           0
     39423 TIP3     5705     TIP3     OH2      OT      -0.834000       15.9994           0
     39424 TIP3     5705     TIP3     H1       HT       0.417000       1.00800           0
     39425 TIP3     5705     TIP3     H2       HT       0.417000       1.00800           0
     39426 TIP3     5706     TIP3     OH2      OT      -0.834000       15.9994           0
     39427 TIP3     5706     TIP3     H1       HT       0.417000       1.00800           0
     39428 TIP3     5706     TIP3     H2       HT       0.417000       1.00800           0
     39429 TIP3     5707     TIP3     OH2      OT      -0.834000       15.9994           0
     39430 TIP3     5707     TIP3     H1       HT       0.417000       1.00800           0
     39431 TIP3     5707     TIP3     H2       HT       0.417000       1.00800           0
     39432 TIP3     5708     TIP3     OH2      OT      -0.834000       15.9994           0
     39433 TIP3     5708     TIP3     H1       HT       0.417000       1.00800           0
     39434 TIP3     5708     TIP3     H2       HT       0.417000       1.00800           0
     39435 TIP3     5709     TIP3     OH2      OT      -0.834000       15.9994           0
     39436 TIP3     5709     TIP3     H1       HT       0.417000       1.00800           0
     39437 TIP3     5709     TIP3     H2       HT       0.417000       1.00800           0
     39438 TIP3     5710     TIP3     OH2      OT      -0.834000       15.9994           0
     39439 TIP3     5710     TIP3     H1       HT       0.417000       1.00800           0
     39440 TIP3     5710     TIP3     H2       HT       0.417000       1.00800           0
     39441 TIP3     5711     TIP3     OH2      OT      -0.834000       15.9994           0
     39442 TIP3     5711     TIP3     H1       HT       0.417000       1.00800           0
     39443 TIP3     5711     TIP3     H2       HT       0.417000       1.00800           0
     39444 TIP3     5712     TIP3     OH2      OT      -0.834000       15.9994           0
     39445 TIP3     5712     TIP3     H1       HT       0.417000       1.00800           0
     39446 TIP3     5712     TIP3     H2       HT       0.417000       1.00800           0
     39447 TIP3     5713     TIP3     OH2      OT      -0.834000       15.9994           0
     39448 TIP3     5713     TIP3     H1       HT       0.417000       1.00800           0
     39449 TIP3     5713     TIP3     H2       HT       0.417000       1.00800           0
     39450 TIP3     5714     TIP3     OH2      OT      -0.834000       15.9994           0
     39451 TIP3     5714     TIP3     H1       HT       0.417000       1.00800           0
     39452 TIP3     5714     TIP3     H2       HT       0.417000       1.00800           0
     39453 TIP3     5715     TIP3     OH2      OT      -0.834000       15.9994           0
     39454 TIP3     5715     TIP3     H1       HT       0.417000       1.00800           0
     39455 TIP3     5715     TIP3     H2       HT       0.417000       1.00800           0
     39456 TIP3     5716     TIP3     OH2      OT      -0.834000       15.9994           0
     39457 TIP3     5716     TIP3     H1       HT       0.417000       1.00800           0
     39458 TIP3     5716     TIP3     H2       HT       0.417000       1.00800           0
     39459 TIP3     5717     TIP3     OH2      OT      -0.834000       15.9994           0
     39460 TIP3     5717     TIP3     H1       HT       0.417000       1.00800           0
     39461 TIP3     5717     TIP3     H2       HT       0.417000       1.00800           0
     39462 TIP3     5718     TIP3     OH2      OT      -0.834000       15.9994           0
     39463 TIP3     5718     TIP3     H1       HT       0.417000       1.00800           0
     39464 TIP3     5718     TIP3     H2       HT       0.417000       1.00800           0
     39465 TIP3     5719     TIP3     OH2      OT      -0.834000       15.9994           0
     39466 TIP3     5719     TIP3     H1       HT       0.417000       1.00800           0
     39467 TIP3     5719     TIP3     H2       HT       0.417000       1.00800           0
     39468 TIP3     5720     TIP3     OH2      OT      -0.834000       15.9994           0
     39469 TIP3     5720     TIP3     H1       HT       0.417000       1.00800           0
     39470 TIP3     5720     TIP3     H2       HT       0.417000       1.00800           0
     39471 TIP3     5721     TIP3     OH2      OT      -0.834000       15.9994           0
     39472 TIP3     5721     TIP3     H1       HT       0.417000       1.00800           0
     39473 TIP3     5721     TIP3     H2       HT       0.417000       1.00800           0
     39474 TIP3     5722     TIP3     OH2      OT      -0.834000       15.9994           0
     39475 TIP3     5722     TIP3     H1       HT       0.417000       1.00800           0
     39476 TIP3     5722     TIP3     H2       HT       0.417000       1.00800           0
     39477 TIP3     5723     TIP3     OH2      OT      -0.834000       15.9994           0
     39478 TIP3     5723     TIP3     H1       HT       0.417000       1.00800           0
     39479 TIP3     5723     TIP3     H2       HT       0.417000       1.00800           0
     39480 TIP3     5724     TIP3     OH2      OT      -0.834000       15.9994           0
     39481 TIP3     5724     TIP3     H1       HT       0.417000       1.00800           0
     39482 TIP3     5724     TIP3     H2       HT       0.417000       1.00800           0
     39483 TIP3     5725     TIP3     OH2      OT      -0.834000       15.9994           0
     39484 TIP3     5725     TIP3     H1       HT       0.417000       1.00800           0
     39485 TIP3     5725     TIP3     H2       HT       0.417000       1.00800           0
     39486 TIP3     5726     TIP3     OH2      OT      -0.834000       15.9994           0
     39487 TIP3     5726     TIP3     H1       HT       0.417000       1.00800           0
     39488 TIP3     5726     TIP3     H2       HT       0.417000       1.00800           0
     39489 TIP3     5727     TIP3     OH2      OT      -0.834000       15.9994           0
     39490 TIP3     5727     TIP3     H1       HT       0.417000       1.00800           0
     39491 TIP3     5727     TIP3     H2       HT       0.417000       1.00800           0
     39492 TIP3     5728     TIP3     OH2      OT      -0.834000       15.9994           0
     39493 TIP3     5728     TIP3     H1       HT       0.417000       1.00800           0
     39494 TIP3     5728     TIP3     H2       HT       0.417000       1.00800           0
     39495 TIP3     5729     TIP3     OH2      OT      -0.834000       15.9994           0
     39496 TIP3     5729     TIP3     H1       HT       0.417000       1.00800           0
     39497 TIP3     5729     TIP3     H2       HT       0.417000       1.00800           0
     39498 TIP3     5730     TIP3     OH2      OT      -0.834000       15.9994           0
     39499 TIP3     5730     TIP3     H1       HT       0.417000       1.00800           0
     39500 TIP3     5730     TIP3     H2       HT       0.417000       1.00800           0
     39501 TIP3     5731     TIP3     OH2      OT      -0.834000       15.9994           0
     39502 TIP3     5731     TIP3     H1       HT       0.417000       1.00800           0
     39503 TIP3     5731     TIP3     H2       HT       0.417000       1.00800           0
     39504 TIP3     5732     TIP3     OH2      OT      -0.834000       15.9994           0
     39505 TIP3     5732     TIP3     H1       HT       0.417000       1.00800           0
     39506 TIP3     5732     TIP3     H2       HT       0.417000       1.00800           0
     39507 TIP3     5733     TIP3     OH2      OT      -0.834000       15.9994           0
     39508 TIP3     5733     TIP3     H1       HT       0.417000       1.00800           0
     39509 TIP3     5733     TIP3     H2       HT       0.417000       1.00800           0
     39510 TIP3     5734     TIP3     OH2      OT      -0.834000       15.9994           0
     39511 TIP3     5734     TIP3     H1       HT       0.417000       1.00800           0
     39512 TIP3     5734     TIP3     H2       HT       0.417000       1.00800           0
     39513 TIP3     5735     TIP3     OH2      OT      -0.834000       15.9994           0
     39514 TIP3     5735     TIP3     H1       HT       0.417000       1.00800           0
     39515 TIP3     5735     TIP3     H2       HT       0.417000       1.00800           0
     39516 TIP3     5736     TIP3     OH2      OT      -0.834000       15.9994           0
     39517 TIP3     5736     TIP3     H1       HT       0.417000       1.00800           0
     39518 TIP3     5736     TIP3     H2       HT       0.417000       1.00800           0
     39519 TIP3     5737     TIP3     OH2      OT      -0.834000       15.9994           0
     39520 TIP3     5737     TIP3     H1       HT       0.417000       1.00800           0
     39521 TIP3     5737     TIP3     H2       HT       0.417000       1.00800           0
     39522 TIP3     5738     TIP3     OH2      OT      -0.834000       15.9994           0
     39523 TIP3     5738     TIP3     H1       HT       0.417000       1.00800           0
     39524 TIP3     5738     TIP3     H2       HT       0.417000       1.00800           0
     39525 TIP3     5739     TIP3     OH2      OT      -0.834000       15.9994           0
     39526 TIP3     5739     TIP3     H1       HT       0.417000       1.00800           0
     39527 TIP3     5739     TIP3     H2       HT       0.417000       1.00800           0
     39528 TIP3     5740     TIP3     OH2      OT      -0.834000       15.9994           0
     39529 TIP3     5740     TIP3     H1       HT       0.417000       1.00800           0
     39530 TIP3     5740     TIP3     H2       HT       0.417000       1.00800           0
     39531 TIP3     5741     TIP3     OH2      OT      -0.834000       15.9994           0
     39532 TIP3     5741     TIP3     H1       HT       0.417000       1.00800           0
     39533 TIP3     5741     TIP3     H2       HT       0.417000       1.00800           0
     39534 TIP3     5742     TIP3     OH2      OT      -0.834000       15.9994           0
     39535 TIP3     5742     TIP3     H1       HT       0.417000       1.00800           0
     39536 TIP3     5742     TIP3     H2       HT       0.417000       1.00800           0
     39537 TIP3     5743     TIP3     OH2      OT      -0.834000       15.9994           0
     39538 TIP3     5743     TIP3     H1       HT       0.417000       1.00800           0
     39539 TIP3     5743     TIP3     H2       HT       0.417000       1.00800           0
     39540 TIP3     5744     TIP3     OH2      OT      -0.834000       15.9994           0
     39541 TIP3     5744     TIP3     H1       HT       0.417000       1.00800           0
     39542 TIP3     5744     TIP3     H2       HT       0.417000       1.00800           0
     39543 TIP3     5745     TIP3     OH2      OT      -0.834000       15.9994           0
     39544 TIP3     5745     TIP3     H1       HT       0.417000       1.00800           0
     39545 TIP3     5745     TIP3     H2       HT       0.417000       1.00800           0
     39546 TIP3     5746     TIP3     OH2      OT      -0.834000       15.9994           0
     39547 TIP3     5746     TIP3     H1       HT       0.417000       1.00800           0
     39548 TIP3     5746     TIP3     H2       HT       0.417000       1.00800           0
     39549 TIP3     5747     TIP3     OH2      OT      -0.834000       15.9994           0
     39550 TIP3     5747     TIP3     H1       HT       0.417000       1.00800           0
     39551 TIP3     5747     TIP3     H2       HT       0.417000       1.00800           0
     39552 TIP3     5748     TIP3     OH2      OT      -0.834000       15.9994           0
     39553 TIP3     5748     TIP3     H1       HT       0.417000       1.00800           0
     39554 TIP3     5748     TIP3     H2       HT       0.417000       1.00800           0
     39555 TIP3     5749     TIP3     OH2      OT      -0.834000       15.9994           0
     39556 TIP3     5749     TIP3     H1       HT       0.417000       1.00800           0
     39557 TIP3     5749     TIP3     H2       HT       0.417000       1.00800           0
     39558 TIP3     5750     TIP3     OH2      OT      -0.834000       15.9994           0
     39559 TIP3     5750     TIP3     H1       HT       0.417000       1.00800           0
     39560 TIP3     5750     TIP3     H2       HT       0.417000       1.00800           0
     39561 TIP3     5751     TIP3     OH2      OT      -0.834000       15.9994           0
     39562 TIP3     5751     TIP3     H1       HT       0.417000       1.00800           0
     39563 TIP3     5751     TIP3     H2       HT       0.417000       1.00800           0
     39564 TIP3     5752     TIP3     OH2      OT      -0.834000       15.9994           0
     39565 TIP3     5752     TIP3     H1       HT       0.417000       1.00800           0
     39566 TIP3     5752     TIP3     H2       HT       0.417000       1.00800           0
     39567 TIP3     5753     TIP3     OH2      OT      -0.834000       15.9994           0
     39568 TIP3     5753     TIP3     H1       HT       0.417000       1.00800           0
     39569 TIP3     5753     TIP3     H2       HT       0.417000       1.00800           0
     39570 TIP3     5754     TIP3     OH2      OT      -0.834000       15.9994           0
     39571 TIP3     5754     TIP3     H1       HT       0.417000       1.00800           0
     39572 TIP3     5754     TIP3     H2       HT       0.417000       1.00800           0
     39573 TIP3     5755     TIP3     OH2      OT      -0.834000       15.9994           0
     39574 TIP3     5755     TIP3     H1       HT       0.417000       1.00800           0
     39575 TIP3     5755     TIP3     H2       HT       0.417000       1.00800           0
     39576 TIP3     5756     TIP3     OH2      OT      -0.834000       15.9994           0
     39577 TIP3     5756     TIP3     H1       HT       0.417000       1.00800           0
     39578 TIP3     5756     TIP3     H2       HT       0.417000       1.00800           0
     39579 TIP3     5757     TIP3     OH2      OT      -0.834000       15.9994           0
     39580 TIP3     5757     TIP3     H1       HT       0.417000       1.00800           0
     39581 TIP3     5757     TIP3     H2       HT       0.417000       1.00800           0
     39582 TIP3     5758     TIP3     OH2      OT      -0.834000       15.9994           0
     39583 TIP3     5758     TIP3     H1       HT       0.417000       1.00800           0
     39584 TIP3     5758     TIP3     H2       HT       0.417000       1.00800           0
     39585 TIP3     5759     TIP3     OH2      OT      -0.834000       15.9994           0
     39586 TIP3     5759     TIP3     H1       HT       0.417000       1.00800           0
     39587 TIP3     5759     TIP3     H2       HT       0.417000       1.00800           0
     39588 TIP3     5760     TIP3     OH2      OT      -0.834000       15.9994           0
     39589 TIP3     5760     TIP3     H1       HT       0.417000       1.00800           0
     39590 TIP3     5760     TIP3     H2       HT       0.417000       1.00800           0
     39591 TIP3     5761     TIP3     OH2      OT      -0.834000       15.9994           0
     39592 TIP3     5761     TIP3     H1       HT       0.417000       1.00800           0
     39593 TIP3     5761     TIP3     H2       HT       0.417000       1.00800           0
     39594 TIP3     5762     TIP3     OH2      OT      -0.834000       15.9994           0
     39595 TIP3     5762     TIP3     H1       HT       0.417000       1.00800           0
     39596 TIP3     5762     TIP3     H2       HT       0.417000       1.00800           0
     39597 TIP3     5763     TIP3     OH2      OT      -0.834000       15.9994           0
     39598 TIP3     5763     TIP3     H1       HT       0.417000       1.00800           0
     39599 TIP3     5763     TIP3     H2       HT       0.417000       1.00800           0
     39600 TIP3     5764     TIP3     OH2      OT      -0.834000       15.9994           0
     39601 TIP3     5764     TIP3     H1       HT       0.417000       1.00800           0
     39602 TIP3     5764     TIP3     H2       HT       0.417000       1.00800           0
     39603 TIP3     5765     TIP3     OH2      OT      -0.834000       15.9994           0
     39604 TIP3     5765     TIP3     H1       HT       0.417000       1.00800           0
     39605 TIP3     5765     TIP3     H2       HT       0.417000       1.00800           0
     39606 TIP3     5766     TIP3     OH2      OT      -0.834000       15.9994           0
     39607 TIP3     5766     TIP3     H1       HT       0.417000       1.00800           0
     39608 TIP3     5766     TIP3     H2       HT       0.417000       1.00800           0
     39609 TIP3     5767     TIP3     OH2      OT      -0.834000       15.9994           0
     39610 TIP3     5767     TIP3     H1       HT       0.417000       1.00800           0
     39611 TIP3     5767     TIP3     H2       HT       0.417000       1.00800           0
     39612 TIP3     5768     TIP3     OH2      OT      -0.834000       15.9994           0
     39613 TIP3     5768     TIP3     H1       HT       0.417000       1.00800           0
     39614 TIP3     5768     TIP3     H2       HT       0.417000       1.00800           0
     39615 TIP3     5769     TIP3     OH2      OT      -0.834000       15.9994           0
     39616 TIP3     5769     TIP3     H1       HT       0.417000       1.00800           0
     39617 TIP3     5769     TIP3     H2       HT       0.417000       1.00800           0
     39618 TIP3     5770     TIP3     OH2      OT      -0.834000       15.9994           0
     39619 TIP3     5770     TIP3     H1       HT       0.417000       1.00800           0
     39620 TIP3     5770     TIP3     H2       HT       0.417000       1.00800           0
     39621 TIP3     5771     TIP3     OH2      OT      -0.834000       15.9994           0
     39622 TIP3     5771     TIP3     H1       HT       0.417000       1.00800           0
     39623 TIP3     5771     TIP3     H2       HT       0.417000       1.00800           0
     39624 TIP3     5772     TIP3     OH2      OT      -0.834000       15.9994           0
     39625 TIP3     5772     TIP3     H1       HT       0.417000       1.00800           0
     39626 TIP3     5772     TIP3     H2       HT       0.417000       1.00800           0
     39627 TIP3     5773     TIP3     OH2      OT      -0.834000       15.9994           0
     39628 TIP3     5773     TIP3     H1       HT       0.417000       1.00800           0
     39629 TIP3     5773     TIP3     H2       HT       0.417000       1.00800           0
     39630 TIP3     5774     TIP3     OH2      OT      -0.834000       15.9994           0
     39631 TIP3     5774     TIP3     H1       HT       0.417000       1.00800           0
     39632 TIP3     5774     TIP3     H2       HT       0.417000       1.00800           0
     39633 TIP3     5775     TIP3     OH2      OT      -0.834000       15.9994           0
     39634 TIP3     5775     TIP3     H1       HT       0.417000       1.00800           0
     39635 TIP3     5775     TIP3     H2       HT       0.417000       1.00800           0
     39636 TIP3     5776     TIP3     OH2      OT      -0.834000       15.9994           0
     39637 TIP3     5776     TIP3     H1       HT       0.417000       1.00800           0
     39638 TIP3     5776     TIP3     H2       HT       0.417000       1.00800           0
     39639 TIP3     5777     TIP3     OH2      OT      -0.834000       15.9994           0
     39640 TIP3     5777     TIP3     H1       HT       0.417000       1.00800           0
     39641 TIP3     5777     TIP3     H2       HT       0.417000       1.00800           0
     39642 TIP3     5778     TIP3     OH2      OT      -0.834000       15.9994           0
     39643 TIP3     5778     TIP3     H1       HT       0.417000       1.00800           0
     39644 TIP3     5778     TIP3     H2       HT       0.417000       1.00800           0
     39645 TIP3     5779     TIP3     OH2      OT      -0.834000       15.9994           0
     39646 TIP3     5779     TIP3     H1       HT       0.417000       1.00800           0
     39647 TIP3     5779     TIP3     H2       HT       0.417000       1.00800           0
     39648 TIP3     5780     TIP3     OH2      OT      -0.834000       15.9994           0
     39649 TIP3     5780     TIP3     H1       HT       0.417000       1.00800           0
     39650 TIP3     5780     TIP3     H2       HT       0.417000       1.00800           0
     39651 TIP3     5781     TIP3     OH2      OT      -0.834000       15.9994           0
     39652 TIP3     5781     TIP3     H1       HT       0.417000       1.00800           0
     39653 TIP3     5781     TIP3     H2       HT       0.417000       1.00800           0
     39654 TIP3     5782     TIP3     OH2      OT      -0.834000       15.9994           0
     39655 TIP3     5782     TIP3     H1       HT       0.417000       1.00800           0
     39656 TIP3     5782     TIP3     H2       HT       0.417000       1.00800           0
     39657 TIP3     5783     TIP3     OH2      OT      -0.834000       15.9994           0
     39658 TIP3     5783     TIP3     H1       HT       0.417000       1.00800           0
     39659 TIP3     5783     TIP3     H2       HT       0.417000       1.00800           0
     39660 TIP3     5784     TIP3     OH2      OT      -0.834000       15.9994           0
     39661 TIP3     5784     TIP3     H1       HT       0.417000       1.00800           0
     39662 TIP3     5784     TIP3     H2       HT       0.417000       1.00800           0
     39663 TIP3     5785     TIP3     OH2      OT      -0.834000       15.9994           0
     39664 TIP3     5785     TIP3     H1       HT       0.417000       1.00800           0
     39665 TIP3     5785     TIP3     H2       HT       0.417000       1.00800           0
     39666 TIP3     5786     TIP3     OH2      OT      -0.834000       15.9994           0
     39667 TIP3     5786     TIP3     H1       HT       0.417000       1.00800           0
     39668 TIP3     5786     TIP3     H2       HT       0.417000       1.00800           0
     39669 TIP3     5787     TIP3     OH2      OT      -0.834000       15.9994           0
     39670 TIP3     5787     TIP3     H1       HT       0.417000       1.00800           0
     39671 TIP3     5787     TIP3     H2       HT       0.417000       1.00800           0
     39672 TIP3     5788     TIP3     OH2      OT      -0.834000       15.9994           0
     39673 TIP3     5788     TIP3     H1       HT       0.417000       1.00800           0
     39674 TIP3     5788     TIP3     H2       HT       0.417000       1.00800           0
     39675 TIP3     5789     TIP3     OH2      OT      -0.834000       15.9994           0
     39676 TIP3     5789     TIP3     H1       HT       0.417000       1.00800           0
     39677 TIP3     5789     TIP3     H2       HT       0.417000       1.00800           0
     39678 TIP3     5790     TIP3     OH2      OT      -0.834000       15.9994           0
     39679 TIP3     5790     TIP3     H1       HT       0.417000       1.00800           0
     39680 TIP3     5790     TIP3     H2       HT       0.417000       1.00800           0
     39681 TIP3     5791     TIP3     OH2      OT      -0.834000       15.9994           0
     39682 TIP3     5791     TIP3     H1       HT       0.417000       1.00800           0
     39683 TIP3     5791     TIP3     H2       HT       0.417000       1.00800           0
     39684 TIP3     5792     TIP3     OH2      OT      -0.834000       15.9994           0
     39685 TIP3     5792     TIP3     H1       HT       0.417000       1.00800           0
     39686 TIP3     5792     TIP3     H2       HT       0.417000       1.00800           0
     39687 TIP3     5793     TIP3     OH2      OT      -0.834000       15.9994           0
     39688 TIP3     5793     TIP3     H1       HT       0.417000       1.00800           0
     39689 TIP3     5793     TIP3     H2       HT       0.417000       1.00800           0
     39690 TIP3     5794     TIP3     OH2      OT      -0.834000       15.9994           0
     39691 TIP3     5794     TIP3     H1       HT       0.417000       1.00800           0
     39692 TIP3     5794     TIP3     H2       HT       0.417000       1.00800           0
     39693 TIP3     5795     TIP3     OH2      OT      -0.834000       15.9994           0
     39694 TIP3     5795     TIP3     H1       HT       0.417000       1.00800           0
     39695 TIP3     5795     TIP3     H2       HT       0.417000       1.00800           0
     39696 TIP3     5796     TIP3     OH2      OT      -0.834000       15.9994           0
     39697 TIP3     5796     TIP3     H1       HT       0.417000       1.00800           0
     39698 TIP3     5796     TIP3     H2       HT       0.417000       1.00800           0
     39699 TIP3     5797     TIP3     OH2      OT      -0.834000       15.9994           0
     39700 TIP3     5797     TIP3     H1       HT       0.417000       1.00800           0
     39701 TIP3     5797     TIP3     H2       HT       0.417000       1.00800           0
     39702 TIP3     5798     TIP3     OH2      OT      -0.834000       15.9994           0
     39703 TIP3     5798     TIP3     H1       HT       0.417000       1.00800           0
     39704 TIP3     5798     TIP3     H2       HT       0.417000       1.00800           0
     39705 TIP3     5799     TIP3     OH2      OT      -0.834000       15.9994           0
     39706 TIP3     5799     TIP3     H1       HT       0.417000       1.00800           0
     39707 TIP3     5799     TIP3     H2       HT       0.417000       1.00800           0
     39708 TIP3     5800     TIP3     OH2      OT      -0.834000       15.9994           0
     39709 TIP3     5800     TIP3     H1       HT       0.417000       1.00800           0
     39710 TIP3     5800     TIP3     H2       HT       0.417000       1.00800           0
     39711 TIP3     5801     TIP3     OH2      OT      -0.834000       15.9994           0
     39712 TIP3     5801     TIP3     H1       HT       0.417000       1.00800           0
     39713 TIP3     5801     TIP3     H2       HT       0.417000       1.00800           0
     39714 TIP3     5802     TIP3     OH2      OT      -0.834000       15.9994           0
     39715 TIP3     5802     TIP3     H1       HT       0.417000       1.00800           0
     39716 TIP3     5802     TIP3     H2       HT       0.417000       1.00800           0
     39717 TIP3     5803     TIP3     OH2      OT      -0.834000       15.9994           0
     39718 TIP3     5803     TIP3     H1       HT       0.417000       1.00800           0
     39719 TIP3     5803     TIP3     H2       HT       0.417000       1.00800           0
     39720 TIP3     5804     TIP3     OH2      OT      -0.834000       15.9994           0
     39721 TIP3     5804     TIP3     H1       HT       0.417000       1.00800           0
     39722 TIP3     5804     TIP3     H2       HT       0.417000       1.00800           0
     39723 TIP3     5805     TIP3     OH2      OT      -0.834000       15.9994           0
     39724 TIP3     5805     TIP3     H1       HT       0.417000       1.00800           0
     39725 TIP3     5805     TIP3     H2       HT       0.417000       1.00800           0
     39726 TIP3     5806     TIP3     OH2      OT      -0.834000       15.9994           0
     39727 TIP3     5806     TIP3     H1       HT       0.417000       1.00800           0
     39728 TIP3     5806     TIP3     H2       HT       0.417000       1.00800           0
     39729 TIP3     5807     TIP3     OH2      OT      -0.834000       15.9994           0
     39730 TIP3     5807     TIP3     H1       HT       0.417000       1.00800           0
     39731 TIP3     5807     TIP3     H2       HT       0.417000       1.00800           0
     39732 TIP3     5808     TIP3     OH2      OT      -0.834000       15.9994           0
     39733 TIP3     5808     TIP3     H1       HT       0.417000       1.00800           0
     39734 TIP3     5808     TIP3     H2       HT       0.417000       1.00800           0
     39735 TIP3     5809     TIP3     OH2      OT      -0.834000       15.9994           0
     39736 TIP3     5809     TIP3     H1       HT       0.417000       1.00800           0
     39737 TIP3     5809     TIP3     H2       HT       0.417000       1.00800           0
     39738 TIP3     5810     TIP3     OH2      OT      -0.834000       15.9994           0
     39739 TIP3     5810     TIP3     H1       HT       0.417000       1.00800           0
     39740 TIP3     5810     TIP3     H2       HT       0.417000       1.00800           0
     39741 TIP3     5811     TIP3     OH2      OT      -0.834000       15.9994           0
     39742 TIP3     5811     TIP3     H1       HT       0.417000       1.00800           0
     39743 TIP3     5811     TIP3     H2       HT       0.417000       1.00800           0
     39744 TIP3     5812     TIP3     OH2      OT      -0.834000       15.9994           0
     39745 TIP3     5812     TIP3     H1       HT       0.417000       1.00800           0
     39746 TIP3     5812     TIP3     H2       HT       0.417000       1.00800           0
     39747 TIP3     5813     TIP3     OH2      OT      -0.834000       15.9994           0
     39748 TIP3     5813     TIP3     H1       HT       0.417000       1.00800           0
     39749 TIP3     5813     TIP3     H2       HT       0.417000       1.00800           0
     39750 TIP3     5814     TIP3     OH2      OT      -0.834000       15.9994           0
     39751 TIP3     5814     TIP3     H1       HT       0.417000       1.00800           0
     39752 TIP3     5814     TIP3     H2       HT       0.417000       1.00800           0
     39753 TIP3     5815     TIP3     OH2      OT      -0.834000       15.9994           0
     39754 TIP3     5815     TIP3     H1       HT       0.417000       1.00800           0
     39755 TIP3     5815     TIP3     H2       HT       0.417000       1.00800           0
     39756 TIP3     5816     TIP3     OH2      OT      -0.834000       15.9994           0
     39757 TIP3     5816     TIP3     H1       HT       0.417000       1.00800           0
     39758 TIP3     5816     TIP3     H2       HT       0.417000       1.00800           0
     39759 TIP3     5817     TIP3     OH2      OT      -0.834000       15.9994           0
     39760 TIP3     5817     TIP3     H1       HT       0.417000       1.00800           0
     39761 TIP3     5817     TIP3     H2       HT       0.417000       1.00800           0
     39762 TIP3     5818     TIP3     OH2      OT      -0.834000       15.9994           0
     39763 TIP3     5818     TIP3     H1       HT       0.417000       1.00800           0
     39764 TIP3     5818     TIP3     H2       HT       0.417000       1.00800           0
     39765 TIP3     5819     TIP3     OH2      OT      -0.834000       15.9994           0
     39766 TIP3     5819     TIP3     H1       HT       0.417000       1.00800           0
     39767 TIP3     5819     TIP3     H2       HT       0.417000       1.00800           0
     39768 TIP3     5820     TIP3     OH2      OT      -0.834000       15.9994           0
     39769 TIP3     5820     TIP3     H1       HT       0.417000       1.00800           0
     39770 TIP3     5820     TIP3     H2       HT       0.417000       1.00800           0
     39771 TIP3     5821     TIP3     OH2      OT      -0.834000       15.9994           0
     39772 TIP3     5821     TIP3     H1       HT       0.417000       1.00800           0
     39773 TIP3     5821     TIP3     H2       HT       0.417000       1.00800           0
     39774 TIP3     5822     TIP3     OH2      OT      -0.834000       15.9994           0
     39775 TIP3     5822     TIP3     H1       HT       0.417000       1.00800           0
     39776 TIP3     5822     TIP3     H2       HT       0.417000       1.00800           0
     39777 TIP3     5823     TIP3     OH2      OT      -0.834000       15.9994           0
     39778 TIP3     5823     TIP3     H1       HT       0.417000       1.00800           0
     39779 TIP3     5823     TIP3     H2       HT       0.417000       1.00800           0
     39780 TIP3     5824     TIP3     OH2      OT      -0.834000       15.9994           0
     39781 TIP3     5824     TIP3     H1       HT       0.417000       1.00800           0
     39782 TIP3     5824     TIP3     H2       HT       0.417000       1.00800           0
     39783 TIP3     5825     TIP3     OH2      OT      -0.834000       15.9994           0
     39784 TIP3     5825     TIP3     H1       HT       0.417000       1.00800           0
     39785 TIP3     5825     TIP3     H2       HT       0.417000       1.00800           0
     39786 TIP3     5826     TIP3     OH2      OT      -0.834000       15.9994           0
     39787 TIP3     5826     TIP3     H1       HT       0.417000       1.00800           0
     39788 TIP3     5826     TIP3     H2       HT       0.417000       1.00800           0
     39789 TIP3     5827     TIP3     OH2      OT      -0.834000       15.9994           0
     39790 TIP3     5827     TIP3     H1       HT       0.417000       1.00800           0
     39791 TIP3     5827     TIP3     H2       HT       0.417000       1.00800           0
     39792 TIP3     5828     TIP3     OH2      OT      -0.834000       15.9994           0
     39793 TIP3     5828     TIP3     H1       HT       0.417000       1.00800           0
     39794 TIP3     5828     TIP3     H2       HT       0.417000       1.00800           0
     39795 TIP3     5829     TIP3     OH2      OT      -0.834000       15.9994           0
     39796 TIP3     5829     TIP3     H1       HT       0.417000       1.00800           0
     39797 TIP3     5829     TIP3     H2       HT       0.417000       1.00800           0
     39798 TIP3     5830     TIP3     OH2      OT      -0.834000       15.9994           0
     39799 TIP3     5830     TIP3     H1       HT       0.417000       1.00800           0
     39800 TIP3     5830     TIP3     H2       HT       0.417000       1.00800           0
     39801 TIP3     5831     TIP3     OH2      OT      -0.834000       15.9994           0
     39802 TIP3     5831     TIP3     H1       HT       0.417000       1.00800           0
     39803 TIP3     5831     TIP3     H2       HT       0.417000       1.00800           0
     39804 TIP3     5832     TIP3     OH2      OT      -0.834000       15.9994           0
     39805 TIP3     5832     TIP3     H1       HT       0.417000       1.00800           0
     39806 TIP3     5832     TIP3     H2       HT       0.417000       1.00800           0
     39807 TIP3     5833     TIP3     OH2      OT      -0.834000       15.9994           0
     39808 TIP3     5833     TIP3     H1       HT       0.417000       1.00800           0
     39809 TIP3     5833     TIP3     H2       HT       0.417000       1.00800           0
     39810 TIP3     5834     TIP3     OH2      OT      -0.834000       15.9994           0
     39811 TIP3     5834     TIP3     H1       HT       0.417000       1.00800           0
     39812 TIP3     5834     TIP3     H2       HT       0.417000       1.00800           0
     39813 TIP3     5835     TIP3     OH2      OT      -0.834000       15.9994           0
     39814 TIP3     5835     TIP3     H1       HT       0.417000       1.00800           0
     39815 TIP3     5835     TIP3     H2       HT       0.417000       1.00800           0
     39816 TIP3     5836     TIP3     OH2      OT      -0.834000       15.9994           0
     39817 TIP3     5836     TIP3     H1       HT       0.417000       1.00800           0
     39818 TIP3     5836     TIP3     H2       HT       0.417000       1.00800           0
     39819 TIP3     5837     TIP3     OH2      OT      -0.834000       15.9994           0
     39820 TIP3     5837     TIP3     H1       HT       0.417000       1.00800           0
     39821 TIP3     5837     TIP3     H2       HT       0.417000       1.00800           0
     39822 TIP3     5838     TIP3     OH2      OT      -0.834000       15.9994           0
     39823 TIP3     5838     TIP3     H1       HT       0.417000       1.00800           0
     39824 TIP3     5838     TIP3     H2       HT       0.417000       1.00800           0
     39825 TIP3     5839     TIP3     OH2      OT      -0.834000       15.9994           0
     39826 TIP3     5839     TIP3     H1       HT       0.417000       1.00800           0
     39827 TIP3     5839     TIP3     H2       HT       0.417000       1.00800           0
     39828 TIP3     5840     TIP3     OH2      OT      -0.834000       15.9994           0
     39829 TIP3     5840     TIP3     H1       HT       0.417000       1.00800           0
     39830 TIP3     5840     TIP3     H2       HT       0.417000       1.00800           0
     39831 TIP3     5841     TIP3     OH2      OT      -0.834000       15.9994           0
     39832 TIP3     5841     TIP3     H1       HT       0.417000       1.00800           0
     39833 TIP3     5841     TIP3     H2       HT       0.417000       1.00800           0
     39834 TIP3     5842     TIP3     OH2      OT      -0.834000       15.9994           0
     39835 TIP3     5842     TIP3     H1       HT       0.417000       1.00800           0
     39836 TIP3     5842     TIP3     H2       HT       0.417000       1.00800           0
     39837 TIP3     5843     TIP3     OH2      OT      -0.834000       15.9994           0
     39838 TIP3     5843     TIP3     H1       HT       0.417000       1.00800           0
     39839 TIP3     5843     TIP3     H2       HT       0.417000       1.00800           0
     39840 TIP3     5844     TIP3     OH2      OT      -0.834000       15.9994           0
     39841 TIP3     5844     TIP3     H1       HT       0.417000       1.00800           0
     39842 TIP3     5844     TIP3     H2       HT       0.417000       1.00800           0
     39843 TIP3     5845     TIP3     OH2      OT      -0.834000       15.9994           0
     39844 TIP3     5845     TIP3     H1       HT       0.417000       1.00800           0
     39845 TIP3     5845     TIP3     H2       HT       0.417000       1.00800           0
     39846 TIP3     5846     TIP3     OH2      OT      -0.834000       15.9994           0
     39847 TIP3     5846     TIP3     H1       HT       0.417000       1.00800           0
     39848 TIP3     5846     TIP3     H2       HT       0.417000       1.00800           0
     39849 TIP3     5847     TIP3     OH2      OT      -0.834000       15.9994           0
     39850 TIP3     5847     TIP3     H1       HT       0.417000       1.00800           0
     39851 TIP3     5847     TIP3     H2       HT       0.417000       1.00800           0
     39852 TIP3     5848     TIP3     OH2      OT      -0.834000       15.9994           0
     39853 TIP3     5848     TIP3     H1       HT       0.417000       1.00800           0
     39854 TIP3     5848     TIP3     H2       HT       0.417000       1.00800           0
     39855 TIP3     5849     TIP3     OH2      OT      -0.834000       15.9994           0
     39856 TIP3     5849     TIP3     H1       HT       0.417000       1.00800           0
     39857 TIP3     5849     TIP3     H2       HT       0.417000       1.00800           0
     39858 TIP3     5850     TIP3     OH2      OT      -0.834000       15.9994           0
     39859 TIP3     5850     TIP3     H1       HT       0.417000       1.00800           0
     39860 TIP3     5850     TIP3     H2       HT       0.417000       1.00800           0
     39861 TIP3     5851     TIP3     OH2      OT      -0.834000       15.9994           0
     39862 TIP3     5851     TIP3     H1       HT       0.417000       1.00800           0
     39863 TIP3     5851     TIP3     H2       HT       0.417000       1.00800           0
     39864 TIP3     5852     TIP3     OH2      OT      -0.834000       15.9994           0
     39865 TIP3     5852     TIP3     H1       HT       0.417000       1.00800           0
     39866 TIP3     5852     TIP3     H2       HT       0.417000       1.00800           0
     39867 TIP3     5853     TIP3     OH2      OT      -0.834000       15.9994           0
     39868 TIP3     5853     TIP3     H1       HT       0.417000       1.00800           0
     39869 TIP3     5853     TIP3     H2       HT       0.417000       1.00800           0
     39870 TIP3     5854     TIP3     OH2      OT      -0.834000       15.9994           0
     39871 TIP3     5854     TIP3     H1       HT       0.417000       1.00800           0
     39872 TIP3     5854     TIP3     H2       HT       0.417000       1.00800           0
     39873 TIP3     5855     TIP3     OH2      OT      -0.834000       15.9994           0
     39874 TIP3     5855     TIP3     H1       HT       0.417000       1.00800           0
     39875 TIP3     5855     TIP3     H2       HT       0.417000       1.00800           0
     39876 TIP3     5856     TIP3     OH2      OT      -0.834000       15.9994           0
     39877 TIP3     5856     TIP3     H1       HT       0.417000       1.00800           0
     39878 TIP3     5856     TIP3     H2       HT       0.417000       1.00800           0
     39879 TIP3     5857     TIP3     OH2      OT      -0.834000       15.9994           0
     39880 TIP3     5857     TIP3     H1       HT       0.417000       1.00800           0
     39881 TIP3     5857     TIP3     H2       HT       0.417000       1.00800           0
     39882 TIP3     5858     TIP3     OH2      OT      -0.834000       15.9994           0
     39883 TIP3     5858     TIP3     H1       HT       0.417000       1.00800           0
     39884 TIP3     5858     TIP3     H2       HT       0.417000       1.00800           0
     39885 TIP3     5859     TIP3     OH2      OT      -0.834000       15.9994           0
     39886 TIP3     5859     TIP3     H1       HT       0.417000       1.00800           0
     39887 TIP3     5859     TIP3     H2       HT       0.417000       1.00800           0
     39888 TIP3     5860     TIP3     OH2      OT      -0.834000       15.9994           0
     39889 TIP3     5860     TIP3     H1       HT       0.417000       1.00800           0
     39890 TIP3     5860     TIP3     H2       HT       0.417000       1.00800           0
     39891 TIP3     5861     TIP3     OH2      OT      -0.834000       15.9994           0
     39892 TIP3     5861     TIP3     H1       HT       0.417000       1.00800           0
     39893 TIP3     5861     TIP3     H2       HT       0.417000       1.00800           0
     39894 TIP3     5862     TIP3     OH2      OT      -0.834000       15.9994           0
     39895 TIP3     5862     TIP3     H1       HT       0.417000       1.00800           0
     39896 TIP3     5862     TIP3     H2       HT       0.417000       1.00800           0
     39897 TIP3     5863     TIP3     OH2      OT      -0.834000       15.9994           0
     39898 TIP3     5863     TIP3     H1       HT       0.417000       1.00800           0
     39899 TIP3     5863     TIP3     H2       HT       0.417000       1.00800           0
     39900 TIP3     5864     TIP3     OH2      OT      -0.834000       15.9994           0
     39901 TIP3     5864     TIP3     H1       HT       0.417000       1.00800           0
     39902 TIP3     5864     TIP3     H2       HT       0.417000       1.00800           0
     39903 TIP3     5865     TIP3     OH2      OT      -0.834000       15.9994           0
     39904 TIP3     5865     TIP3     H1       HT       0.417000       1.00800           0
     39905 TIP3     5865     TIP3     H2       HT       0.417000       1.00800           0
     39906 TIP3     5866     TIP3     OH2      OT      -0.834000       15.9994           0
     39907 TIP3     5866     TIP3     H1       HT       0.417000       1.00800           0
     39908 TIP3     5866     TIP3     H2       HT       0.417000       1.00800           0
     39909 TIP3     5867     TIP3     OH2      OT      -0.834000       15.9994           0
     39910 TIP3     5867     TIP3     H1       HT       0.417000       1.00800           0
     39911 TIP3     5867     TIP3     H2       HT       0.417000       1.00800           0
     39912 TIP3     5868     TIP3     OH2      OT      -0.834000       15.9994           0
     39913 TIP3     5868     TIP3     H1       HT       0.417000       1.00800           0
     39914 TIP3     5868     TIP3     H2       HT       0.417000       1.00800           0
     39915 TIP3     5869     TIP3     OH2      OT      -0.834000       15.9994           0
     39916 TIP3     5869     TIP3     H1       HT       0.417000       1.00800           0
     39917 TIP3     5869     TIP3     H2       HT       0.417000       1.00800           0
     39918 TIP3     5870     TIP3     OH2      OT      -0.834000       15.9994           0
     39919 TIP3     5870     TIP3     H1       HT       0.417000       1.00800           0
     39920 TIP3     5870     TIP3     H2       HT       0.417000       1.00800           0
     39921 TIP3     5871     TIP3     OH2      OT      -0.834000       15.9994           0
     39922 TIP3     5871     TIP3     H1       HT       0.417000       1.00800           0
     39923 TIP3     5871     TIP3     H2       HT       0.417000       1.00800           0
     39924 TIP3     5872     TIP3     OH2      OT      -0.834000       15.9994           0
     39925 TIP3     5872     TIP3     H1       HT       0.417000       1.00800           0
     39926 TIP3     5872     TIP3     H2       HT       0.417000       1.00800           0
     39927 TIP3     5873     TIP3     OH2      OT      -0.834000       15.9994           0
     39928 TIP3     5873     TIP3     H1       HT       0.417000       1.00800           0
     39929 TIP3     5873     TIP3     H2       HT       0.417000       1.00800           0
     39930 TIP3     5874     TIP3     OH2      OT      -0.834000       15.9994           0
     39931 TIP3     5874     TIP3     H1       HT       0.417000       1.00800           0
     39932 TIP3     5874     TIP3     H2       HT       0.417000       1.00800           0
     39933 TIP3     5875     TIP3     OH2      OT      -0.834000       15.9994           0
     39934 TIP3     5875     TIP3     H1       HT       0.417000       1.00800           0
     39935 TIP3     5875     TIP3     H2       HT       0.417000       1.00800           0
     39936 TIP3     5876     TIP3     OH2      OT      -0.834000       15.9994           0
     39937 TIP3     5876     TIP3     H1       HT       0.417000       1.00800           0
     39938 TIP3     5876     TIP3     H2       HT       0.417000       1.00800           0
     39939 TIP3     5877     TIP3     OH2      OT      -0.834000       15.9994           0
     39940 TIP3     5877     TIP3     H1       HT       0.417000       1.00800           0
     39941 TIP3     5877     TIP3     H2       HT       0.417000       1.00800           0
     39942 TIP3     5878     TIP3     OH2      OT      -0.834000       15.9994           0
     39943 TIP3     5878     TIP3     H1       HT       0.417000       1.00800           0
     39944 TIP3     5878     TIP3     H2       HT       0.417000       1.00800           0
     39945 TIP3     5879     TIP3     OH2      OT      -0.834000       15.9994           0
     39946 TIP3     5879     TIP3     H1       HT       0.417000       1.00800           0
     39947 TIP3     5879     TIP3     H2       HT       0.417000       1.00800           0
     39948 TIP3     5880     TIP3     OH2      OT      -0.834000       15.9994           0
     39949 TIP3     5880     TIP3     H1       HT       0.417000       1.00800           0
     39950 TIP3     5880     TIP3     H2       HT       0.417000       1.00800           0
     39951 TIP3     5881     TIP3     OH2      OT      -0.834000       15.9994           0
     39952 TIP3     5881     TIP3     H1       HT       0.417000       1.00800           0
     39953 TIP3     5881     TIP3     H2       HT       0.417000       1.00800           0
     39954 TIP3     5882     TIP3     OH2      OT      -0.834000       15.9994           0
     39955 TIP3     5882     TIP3     H1       HT       0.417000       1.00800           0
     39956 TIP3     5882     TIP3     H2       HT       0.417000       1.00800           0
     39957 TIP3     5883     TIP3     OH2      OT      -0.834000       15.9994           0
     39958 TIP3     5883     TIP3     H1       HT       0.417000       1.00800           0
     39959 TIP3     5883     TIP3     H2       HT       0.417000       1.00800           0
     39960 TIP3     5884     TIP3     OH2      OT      -0.834000       15.9994           0
     39961 TIP3     5884     TIP3     H1       HT       0.417000       1.00800           0
     39962 TIP3     5884     TIP3     H2       HT       0.417000       1.00800           0
     39963 TIP3     5885     TIP3     OH2      OT      -0.834000       15.9994           0
     39964 TIP3     5885     TIP3     H1       HT       0.417000       1.00800           0
     39965 TIP3     5885     TIP3     H2       HT       0.417000       1.00800           0
     39966 TIP3     5886     TIP3     OH2      OT      -0.834000       15.9994           0
     39967 TIP3     5886     TIP3     H1       HT       0.417000       1.00800           0
     39968 TIP3     5886     TIP3     H2       HT       0.417000       1.00800           0
     39969 TIP3     5887     TIP3     OH2      OT      -0.834000       15.9994           0
     39970 TIP3     5887     TIP3     H1       HT       0.417000       1.00800           0
     39971 TIP3     5887     TIP3     H2       HT       0.417000       1.00800           0
     39972 TIP3     5888     TIP3     OH2      OT      -0.834000       15.9994           0
     39973 TIP3     5888     TIP3     H1       HT       0.417000       1.00800           0
     39974 TIP3     5888     TIP3     H2       HT       0.417000       1.00800           0
     39975 TIP3     5889     TIP3     OH2      OT      -0.834000       15.9994           0
     39976 TIP3     5889     TIP3     H1       HT       0.417000       1.00800           0
     39977 TIP3     5889     TIP3     H2       HT       0.417000       1.00800           0
     39978 TIP3     5890     TIP3     OH2      OT      -0.834000       15.9994           0
     39979 TIP3     5890     TIP3     H1       HT       0.417000       1.00800           0
     39980 TIP3     5890     TIP3     H2       HT       0.417000       1.00800           0
     39981 TIP3     5891     TIP3     OH2      OT      -0.834000       15.9994           0
     39982 TIP3     5891     TIP3     H1       HT       0.417000       1.00800           0
     39983 TIP3     5891     TIP3     H2       HT       0.417000       1.00800           0
     39984 TIP3     5892     TIP3     OH2      OT      -0.834000       15.9994           0
     39985 TIP3     5892     TIP3     H1       HT       0.417000       1.00800           0
     39986 TIP3     5892     TIP3     H2       HT       0.417000       1.00800           0
     39987 TIP3     5893     TIP3     OH2      OT      -0.834000       15.9994           0
     39988 TIP3     5893     TIP3     H1       HT       0.417000       1.00800           0
     39989 TIP3     5893     TIP3     H2       HT       0.417000       1.00800           0
     39990 TIP3     5894     TIP3     OH2      OT      -0.834000       15.9994           0
     39991 TIP3     5894     TIP3     H1       HT       0.417000       1.00800           0
     39992 TIP3     5894     TIP3     H2       HT       0.417000       1.00800           0
     39993 TIP3     5895     TIP3     OH2      OT      -0.834000       15.9994           0
     39994 TIP3     5895     TIP3     H1       HT       0.417000       1.00800           0
     39995 TIP3     5895     TIP3     H2       HT       0.417000       1.00800           0
     39996 TIP3     5896     TIP3     OH2      OT      -0.834000       15.9994           0
     39997 TIP3     5896     TIP3     H1       HT       0.417000       1.00800           0
     39998 TIP3     5896     TIP3     H2       HT       0.417000       1.00800           0
     39999 TIP3     5897     TIP3     OH2      OT      -0.834000       15.9994           0
     40000 TIP3     5897     TIP3     H1       HT       0.417000       1.00800           0
     40001 TIP3     5897     TIP3     H2       HT       0.417000       1.00800           0
     40002 TIP3     5898     TIP3     OH2      OT      -0.834000       15.9994           0
     40003 TIP3     5898     TIP3     H1       HT       0.417000       1.00800           0
     40004 TIP3     5898     TIP3     H2       HT       0.417000       1.00800           0
     40005 TIP3     5899     TIP3     OH2      OT      -0.834000       15.9994           0
     40006 TIP3     5899     TIP3     H1       HT       0.417000       1.00800           0
     40007 TIP3     5899     TIP3     H2       HT       0.417000       1.00800           0
     40008 TIP3     5900     TIP3     OH2      OT      -0.834000       15.9994           0
     40009 TIP3     5900     TIP3     H1       HT       0.417000       1.00800           0
     40010 TIP3     5900     TIP3     H2       HT       0.417000       1.00800           0
     40011 TIP3     5901     TIP3     OH2      OT      -0.834000       15.9994           0
     40012 TIP3     5901     TIP3     H1       HT       0.417000       1.00800           0
     40013 TIP3     5901     TIP3     H2       HT       0.417000       1.00800           0
     40014 TIP3     5902     TIP3     OH2      OT      -0.834000       15.9994           0
     40015 TIP3     5902     TIP3     H1       HT       0.417000       1.00800           0
     40016 TIP3     5902     TIP3     H2       HT       0.417000       1.00800           0
     40017 TIP3     5903     TIP3     OH2      OT      -0.834000       15.9994           0
     40018 TIP3     5903     TIP3     H1       HT       0.417000       1.00800           0
     40019 TIP3     5903     TIP3     H2       HT       0.417000       1.00800           0
     40020 TIP3     5904     TIP3     OH2      OT      -0.834000       15.9994           0
     40021 TIP3     5904     TIP3     H1       HT       0.417000       1.00800           0
     40022 TIP3     5904     TIP3     H2       HT       0.417000       1.00800           0
     40023 TIP3     5905     TIP3     OH2      OT      -0.834000       15.9994           0
     40024 TIP3     5905     TIP3     H1       HT       0.417000       1.00800           0
     40025 TIP3     5905     TIP3     H2       HT       0.417000       1.00800           0
     40026 TIP3     5906     TIP3     OH2      OT      -0.834000       15.9994           0
     40027 TIP3     5906     TIP3     H1       HT       0.417000       1.00800           0
     40028 TIP3     5906     TIP3     H2       HT       0.417000       1.00800           0
     40029 TIP3     5907     TIP3     OH2      OT      -0.834000       15.9994           0
     40030 TIP3     5907     TIP3     H1       HT       0.417000       1.00800           0
     40031 TIP3     5907     TIP3     H2       HT       0.417000       1.00800           0
     40032 TIP3     5908     TIP3     OH2      OT      -0.834000       15.9994           0
     40033 TIP3     5908     TIP3     H1       HT       0.417000       1.00800           0
     40034 TIP3     5908     TIP3     H2       HT       0.417000       1.00800           0
     40035 TIP3     5909     TIP3     OH2      OT      -0.834000       15.9994           0
     40036 TIP3     5909     TIP3     H1       HT       0.417000       1.00800           0
     40037 TIP3     5909     TIP3     H2       HT       0.417000       1.00800           0
     40038 TIP3     5910     TIP3     OH2      OT      -0.834000       15.9994           0
     40039 TIP3     5910     TIP3     H1       HT       0.417000       1.00800           0
     40040 TIP3     5910     TIP3     H2       HT       0.417000       1.00800           0
     40041 TIP3     5911     TIP3     OH2      OT      -0.834000       15.9994           0
     40042 TIP3     5911     TIP3     H1       HT       0.417000       1.00800           0
     40043 TIP3     5911     TIP3     H2       HT       0.417000       1.00800           0
     40044 TIP3     5912     TIP3     OH2      OT      -0.834000       15.9994           0
     40045 TIP3     5912     TIP3     H1       HT       0.417000       1.00800           0
     40046 TIP3     5912     TIP3     H2       HT       0.417000       1.00800           0
     40047 TIP3     5913     TIP3     OH2      OT      -0.834000       15.9994           0
     40048 TIP3     5913     TIP3     H1       HT       0.417000       1.00800           0
     40049 TIP3     5913     TIP3     H2       HT       0.417000       1.00800           0
     40050 TIP3     5914     TIP3     OH2      OT      -0.834000       15.9994           0
     40051 TIP3     5914     TIP3     H1       HT       0.417000       1.00800           0
     40052 TIP3     5914     TIP3     H2       HT       0.417000       1.00800           0
     40053 TIP3     5915     TIP3     OH2      OT      -0.834000       15.9994           0
     40054 TIP3     5915     TIP3     H1       HT       0.417000       1.00800           0
     40055 TIP3     5915     TIP3     H2       HT       0.417000       1.00800           0
     40056 TIP3     5916     TIP3     OH2      OT      -0.834000       15.9994           0
     40057 TIP3     5916     TIP3     H1       HT       0.417000       1.00800           0
     40058 TIP3     5916     TIP3     H2       HT       0.417000       1.00800           0
     40059 TIP3     5917     TIP3     OH2      OT      -0.834000       15.9994           0
     40060 TIP3     5917     TIP3     H1       HT       0.417000       1.00800           0
     40061 TIP3     5917     TIP3     H2       HT       0.417000       1.00800           0
     40062 TIP3     5918     TIP3     OH2      OT      -0.834000       15.9994           0
     40063 TIP3     5918     TIP3     H1       HT       0.417000       1.00800           0
     40064 TIP3     5918     TIP3     H2       HT       0.417000       1.00800           0
     40065 TIP3     5919     TIP3     OH2      OT      -0.834000       15.9994           0
     40066 TIP3     5919     TIP3     H1       HT       0.417000       1.00800           0
     40067 TIP3     5919     TIP3     H2       HT       0.417000       1.00800           0
     40068 TIP3     5920     TIP3     OH2      OT      -0.834000       15.9994           0
     40069 TIP3     5920     TIP3     H1       HT       0.417000       1.00800           0
     40070 TIP3     5920     TIP3     H2       HT       0.417000       1.00800           0
     40071 TIP3     5921     TIP3     OH2      OT      -0.834000       15.9994           0
     40072 TIP3     5921     TIP3     H1       HT       0.417000       1.00800           0
     40073 TIP3     5921     TIP3     H2       HT       0.417000       1.00800           0
     40074 TIP3     5922     TIP3     OH2      OT      -0.834000       15.9994           0
     40075 TIP3     5922     TIP3     H1       HT       0.417000       1.00800           0
     40076 TIP3     5922     TIP3     H2       HT       0.417000       1.00800           0
     40077 TIP3     5923     TIP3     OH2      OT      -0.834000       15.9994           0
     40078 TIP3     5923     TIP3     H1       HT       0.417000       1.00800           0
     40079 TIP3     5923     TIP3     H2       HT       0.417000       1.00800           0
     40080 TIP3     5924     TIP3     OH2      OT      -0.834000       15.9994           0
     40081 TIP3     5924     TIP3     H1       HT       0.417000       1.00800           0
     40082 TIP3     5924     TIP3     H2       HT       0.417000       1.00800           0
     40083 TIP3     5925     TIP3     OH2      OT      -0.834000       15.9994           0
     40084 TIP3     5925     TIP3     H1       HT       0.417000       1.00800           0
     40085 TIP3     5925     TIP3     H2       HT       0.417000       1.00800           0
     40086 TIP3     5926     TIP3     OH2      OT      -0.834000       15.9994           0
     40087 TIP3     5926     TIP3     H1       HT       0.417000       1.00800           0
     40088 TIP3     5926     TIP3     H2       HT       0.417000       1.00800           0
     40089 TIP3     5927     TIP3     OH2      OT      -0.834000       15.9994           0
     40090 TIP3     5927     TIP3     H1       HT       0.417000       1.00800           0
     40091 TIP3     5927     TIP3     H2       HT       0.417000       1.00800           0
     40092 TIP3     5928     TIP3     OH2      OT      -0.834000       15.9994           0
     40093 TIP3     5928     TIP3     H1       HT       0.417000       1.00800           0
     40094 TIP3     5928     TIP3     H2       HT       0.417000       1.00800           0
     40095 TIP3     5929     TIP3     OH2      OT      -0.834000       15.9994           0
     40096 TIP3     5929     TIP3     H1       HT       0.417000       1.00800           0
     40097 TIP3     5929     TIP3     H2       HT       0.417000       1.00800           0
     40098 TIP3     5930     TIP3     OH2      OT      -0.834000       15.9994           0
     40099 TIP3     5930     TIP3     H1       HT       0.417000       1.00800           0
     40100 TIP3     5930     TIP3     H2       HT       0.417000       1.00800           0
     40101 TIP3     5931     TIP3     OH2      OT      -0.834000       15.9994           0
     40102 TIP3     5931     TIP3     H1       HT       0.417000       1.00800           0
     40103 TIP3     5931     TIP3     H2       HT       0.417000       1.00800           0
     40104 TIP3     5932     TIP3     OH2      OT      -0.834000       15.9994           0
     40105 TIP3     5932     TIP3     H1       HT       0.417000       1.00800           0
     40106 TIP3     5932     TIP3     H2       HT       0.417000       1.00800           0
     40107 TIP3     5933     TIP3     OH2      OT      -0.834000       15.9994           0
     40108 TIP3     5933     TIP3     H1       HT       0.417000       1.00800           0
     40109 TIP3     5933     TIP3     H2       HT       0.417000       1.00800           0
     40110 TIP3     5934     TIP3     OH2      OT      -0.834000       15.9994           0
     40111 TIP3     5934     TIP3     H1       HT       0.417000       1.00800           0
     40112 TIP3     5934     TIP3     H2       HT       0.417000       1.00800           0
     40113 TIP3     5935     TIP3     OH2      OT      -0.834000       15.9994           0
     40114 TIP3     5935     TIP3     H1       HT       0.417000       1.00800           0
     40115 TIP3     5935     TIP3     H2       HT       0.417000       1.00800           0
     40116 TIP3     5936     TIP3     OH2      OT      -0.834000       15.9994           0
     40117 TIP3     5936     TIP3     H1       HT       0.417000       1.00800           0
     40118 TIP3     5936     TIP3     H2       HT       0.417000       1.00800           0
     40119 TIP3     5937     TIP3     OH2      OT      -0.834000       15.9994           0
     40120 TIP3     5937     TIP3     H1       HT       0.417000       1.00800           0
     40121 TIP3     5937     TIP3     H2       HT       0.417000       1.00800           0
     40122 TIP3     5938     TIP3     OH2      OT      -0.834000       15.9994           0
     40123 TIP3     5938     TIP3     H1       HT       0.417000       1.00800           0
     40124 TIP3     5938     TIP3     H2       HT       0.417000       1.00800           0
     40125 TIP3     5939     TIP3     OH2      OT      -0.834000       15.9994           0
     40126 TIP3     5939     TIP3     H1       HT       0.417000       1.00800           0
     40127 TIP3     5939     TIP3     H2       HT       0.417000       1.00800           0
     40128 TIP3     5940     TIP3     OH2      OT      -0.834000       15.9994           0
     40129 TIP3     5940     TIP3     H1       HT       0.417000       1.00800           0
     40130 TIP3     5940     TIP3     H2       HT       0.417000       1.00800           0
     40131 TIP3     5941     TIP3     OH2      OT      -0.834000       15.9994           0
     40132 TIP3     5941     TIP3     H1       HT       0.417000       1.00800           0
     40133 TIP3     5941     TIP3     H2       HT       0.417000       1.00800           0
     40134 TIP3     5942     TIP3     OH2      OT      -0.834000       15.9994           0
     40135 TIP3     5942     TIP3     H1       HT       0.417000       1.00800           0
     40136 TIP3     5942     TIP3     H2       HT       0.417000       1.00800           0
     40137 TIP3     5943     TIP3     OH2      OT      -0.834000       15.9994           0
     40138 TIP3     5943     TIP3     H1       HT       0.417000       1.00800           0
     40139 TIP3     5943     TIP3     H2       HT       0.417000       1.00800           0
     40140 TIP3     5944     TIP3     OH2      OT      -0.834000       15.9994           0
     40141 TIP3     5944     TIP3     H1       HT       0.417000       1.00800           0
     40142 TIP3     5944     TIP3     H2       HT       0.417000       1.00800           0
     40143 TIP3     5945     TIP3     OH2      OT      -0.834000       15.9994           0
     40144 TIP3     5945     TIP3     H1       HT       0.417000       1.00800           0
     40145 TIP3     5945     TIP3     H2       HT       0.417000       1.00800           0
     40146 TIP3     5946     TIP3     OH2      OT      -0.834000       15.9994           0
     40147 TIP3     5946     TIP3     H1       HT       0.417000       1.00800           0
     40148 TIP3     5946     TIP3     H2       HT       0.417000       1.00800           0
     40149 TIP3     5947     TIP3     OH2      OT      -0.834000       15.9994           0
     40150 TIP3     5947     TIP3     H1       HT       0.417000       1.00800           0
     40151 TIP3     5947     TIP3     H2       HT       0.417000       1.00800           0
     40152 TIP3     5948     TIP3     OH2      OT      -0.834000       15.9994           0
     40153 TIP3     5948     TIP3     H1       HT       0.417000       1.00800           0
     40154 TIP3     5948     TIP3     H2       HT       0.417000       1.00800           0
     40155 TIP3     5949     TIP3     OH2      OT      -0.834000       15.9994           0
     40156 TIP3     5949     TIP3     H1       HT       0.417000       1.00800           0
     40157 TIP3     5949     TIP3     H2       HT       0.417000       1.00800           0
     40158 TIP3     5950     TIP3     OH2      OT      -0.834000       15.9994           0
     40159 TIP3     5950     TIP3     H1       HT       0.417000       1.00800           0
     40160 TIP3     5950     TIP3     H2       HT       0.417000       1.00800           0
     40161 TIP3     5951     TIP3     OH2      OT      -0.834000       15.9994           0
     40162 TIP3     5951     TIP3     H1       HT       0.417000       1.00800           0
     40163 TIP3     5951     TIP3     H2       HT       0.417000       1.00800           0
     40164 TIP3     5952     TIP3     OH2      OT      -0.834000       15.9994           0
     40165 TIP3     5952     TIP3     H1       HT       0.417000       1.00800           0
     40166 TIP3     5952     TIP3     H2       HT       0.417000       1.00800           0
     40167 TIP3     5953     TIP3     OH2      OT      -0.834000       15.9994           0
     40168 TIP3     5953     TIP3     H1       HT       0.417000       1.00800           0
     40169 TIP3     5953     TIP3     H2       HT       0.417000       1.00800           0
     40170 TIP3     5954     TIP3     OH2      OT      -0.834000       15.9994           0
     40171 TIP3     5954     TIP3     H1       HT       0.417000       1.00800           0
     40172 TIP3     5954     TIP3     H2       HT       0.417000       1.00800           0
     40173 TIP3     5955     TIP3     OH2      OT      -0.834000       15.9994           0
     40174 TIP3     5955     TIP3     H1       HT       0.417000       1.00800           0
     40175 TIP3     5955     TIP3     H2       HT       0.417000       1.00800           0
     40176 TIP3     5956     TIP3     OH2      OT      -0.834000       15.9994           0
     40177 TIP3     5956     TIP3     H1       HT       0.417000       1.00800           0
     40178 TIP3     5956     TIP3     H2       HT       0.417000       1.00800           0
     40179 TIP3     5957     TIP3     OH2      OT      -0.834000       15.9994           0
     40180 TIP3     5957     TIP3     H1       HT       0.417000       1.00800           0
     40181 TIP3     5957     TIP3     H2       HT       0.417000       1.00800           0
     40182 TIP3     5958     TIP3     OH2      OT      -0.834000       15.9994           0
     40183 TIP3     5958     TIP3     H1       HT       0.417000       1.00800           0
     40184 TIP3     5958     TIP3     H2       HT       0.417000       1.00800           0
     40185 TIP3     5959     TIP3     OH2      OT      -0.834000       15.9994           0
     40186 TIP3     5959     TIP3     H1       HT       0.417000       1.00800           0
     40187 TIP3     5959     TIP3     H2       HT       0.417000       1.00800           0
     40188 TIP3     5960     TIP3     OH2      OT      -0.834000       15.9994           0
     40189 TIP3     5960     TIP3     H1       HT       0.417000       1.00800           0
     40190 TIP3     5960     TIP3     H2       HT       0.417000       1.00800           0
     40191 TIP3     5961     TIP3     OH2      OT      -0.834000       15.9994           0
     40192 TIP3     5961     TIP3     H1       HT       0.417000       1.00800           0
     40193 TIP3     5961     TIP3     H2       HT       0.417000       1.00800           0
     40194 TIP3     5962     TIP3     OH2      OT      -0.834000       15.9994           0
     40195 TIP3     5962     TIP3     H1       HT       0.417000       1.00800           0
     40196 TIP3     5962     TIP3     H2       HT       0.417000       1.00800           0
     40197 TIP3     5963     TIP3     OH2      OT      -0.834000       15.9994           0
     40198 TIP3     5963     TIP3     H1       HT       0.417000       1.00800           0
     40199 TIP3     5963     TIP3     H2       HT       0.417000       1.00800           0
     40200 TIP3     5964     TIP3     OH2      OT      -0.834000       15.9994           0
     40201 TIP3     5964     TIP3     H1       HT       0.417000       1.00800           0
     40202 TIP3     5964     TIP3     H2       HT       0.417000       1.00800           0
     40203 TIP3     5965     TIP3     OH2      OT      -0.834000       15.9994           0
     40204 TIP3     5965     TIP3     H1       HT       0.417000       1.00800           0
     40205 TIP3     5965     TIP3     H2       HT       0.417000       1.00800           0
     40206 TIP3     5966     TIP3     OH2      OT      -0.834000       15.9994           0
     40207 TIP3     5966     TIP3     H1       HT       0.417000       1.00800           0
     40208 TIP3     5966     TIP3     H2       HT       0.417000       1.00800           0
     40209 TIP3     5967     TIP3     OH2      OT      -0.834000       15.9994           0
     40210 TIP3     5967     TIP3     H1       HT       0.417000       1.00800           0
     40211 TIP3     5967     TIP3     H2       HT       0.417000       1.00800           0
     40212 TIP3     5968     TIP3     OH2      OT      -0.834000       15.9994           0
     40213 TIP3     5968     TIP3     H1       HT       0.417000       1.00800           0
     40214 TIP3     5968     TIP3     H2       HT       0.417000       1.00800           0
     40215 TIP3     5969     TIP3     OH2      OT      -0.834000       15.9994           0
     40216 TIP3     5969     TIP3     H1       HT       0.417000       1.00800           0
     40217 TIP3     5969     TIP3     H2       HT       0.417000       1.00800           0
     40218 TIP3     5970     TIP3     OH2      OT      -0.834000       15.9994           0
     40219 TIP3     5970     TIP3     H1       HT       0.417000       1.00800           0
     40220 TIP3     5970     TIP3     H2       HT       0.417000       1.00800           0
     40221 TIP3     5971     TIP3     OH2      OT      -0.834000       15.9994           0
     40222 TIP3     5971     TIP3     H1       HT       0.417000       1.00800           0
     40223 TIP3     5971     TIP3     H2       HT       0.417000       1.00800           0
     40224 TIP3     5972     TIP3     OH2      OT      -0.834000       15.9994           0
     40225 TIP3     5972     TIP3     H1       HT       0.417000       1.00800           0
     40226 TIP3     5972     TIP3     H2       HT       0.417000       1.00800           0
     40227 TIP3     5973     TIP3     OH2      OT      -0.834000       15.9994           0
     40228 TIP3     5973     TIP3     H1       HT       0.417000       1.00800           0
     40229 TIP3     5973     TIP3     H2       HT       0.417000       1.00800           0
     40230 TIP3     5974     TIP3     OH2      OT      -0.834000       15.9994           0
     40231 TIP3     5974     TIP3     H1       HT       0.417000       1.00800           0
     40232 TIP3     5974     TIP3     H2       HT       0.417000       1.00800           0
     40233 TIP3     5975     TIP3     OH2      OT      -0.834000       15.9994           0
     40234 TIP3     5975     TIP3     H1       HT       0.417000       1.00800           0
     40235 TIP3     5975     TIP3     H2       HT       0.417000       1.00800           0
     40236 TIP3     5976     TIP3     OH2      OT      -0.834000       15.9994           0
     40237 TIP3     5976     TIP3     H1       HT       0.417000       1.00800           0
     40238 TIP3     5976     TIP3     H2       HT       0.417000       1.00800           0
     40239 TIP3     5977     TIP3     OH2      OT      -0.834000       15.9994           0
     40240 TIP3     5977     TIP3     H1       HT       0.417000       1.00800           0
     40241 TIP3     5977     TIP3     H2       HT       0.417000       1.00800           0
     40242 TIP3     5978     TIP3     OH2      OT      -0.834000       15.9994           0
     40243 TIP3     5978     TIP3     H1       HT       0.417000       1.00800           0
     40244 TIP3     5978     TIP3     H2       HT       0.417000       1.00800           0
     40245 TIP3     5979     TIP3     OH2      OT      -0.834000       15.9994           0
     40246 TIP3     5979     TIP3     H1       HT       0.417000       1.00800           0
     40247 TIP3     5979     TIP3     H2       HT       0.417000       1.00800           0
     40248 TIP3     5980     TIP3     OH2      OT      -0.834000       15.9994           0
     40249 TIP3     5980     TIP3     H1       HT       0.417000       1.00800           0
     40250 TIP3     5980     TIP3     H2       HT       0.417000       1.00800           0
     40251 TIP3     5981     TIP3     OH2      OT      -0.834000       15.9994           0
     40252 TIP3     5981     TIP3     H1       HT       0.417000       1.00800           0
     40253 TIP3     5981     TIP3     H2       HT       0.417000       1.00800           0
     40254 TIP3     5982     TIP3     OH2      OT      -0.834000       15.9994           0
     40255 TIP3     5982     TIP3     H1       HT       0.417000       1.00800           0
     40256 TIP3     5982     TIP3     H2       HT       0.417000       1.00800           0
     40257 TIP3     5983     TIP3     OH2      OT      -0.834000       15.9994           0
     40258 TIP3     5983     TIP3     H1       HT       0.417000       1.00800           0
     40259 TIP3     5983     TIP3     H2       HT       0.417000       1.00800           0
     40260 TIP3     5984     TIP3     OH2      OT      -0.834000       15.9994           0
     40261 TIP3     5984     TIP3     H1       HT       0.417000       1.00800           0
     40262 TIP3     5984     TIP3     H2       HT       0.417000       1.00800           0
     40263 TIP3     5985     TIP3     OH2      OT      -0.834000       15.9994           0
     40264 TIP3     5985     TIP3     H1       HT       0.417000       1.00800           0
     40265 TIP3     5985     TIP3     H2       HT       0.417000       1.00800           0
     40266 TIP3     5986     TIP3     OH2      OT      -0.834000       15.9994           0
     40267 TIP3     5986     TIP3     H1       HT       0.417000       1.00800           0
     40268 TIP3     5986     TIP3     H2       HT       0.417000       1.00800           0
     40269 TIP3     5987     TIP3     OH2      OT      -0.834000       15.9994           0
     40270 TIP3     5987     TIP3     H1       HT       0.417000       1.00800           0
     40271 TIP3     5987     TIP3     H2       HT       0.417000       1.00800           0
     40272 TIP3     5988     TIP3     OH2      OT      -0.834000       15.9994           0
     40273 TIP3     5988     TIP3     H1       HT       0.417000       1.00800           0
     40274 TIP3     5988     TIP3     H2       HT       0.417000       1.00800           0
     40275 TIP3     5989     TIP3     OH2      OT      -0.834000       15.9994           0
     40276 TIP3     5989     TIP3     H1       HT       0.417000       1.00800           0
     40277 TIP3     5989     TIP3     H2       HT       0.417000       1.00800           0
     40278 TIP3     5990     TIP3     OH2      OT      -0.834000       15.9994           0
     40279 TIP3     5990     TIP3     H1       HT       0.417000       1.00800           0
     40280 TIP3     5990     TIP3     H2       HT       0.417000       1.00800           0
     40281 TIP3     5991     TIP3     OH2      OT      -0.834000       15.9994           0
     40282 TIP3     5991     TIP3     H1       HT       0.417000       1.00800           0
     40283 TIP3     5991     TIP3     H2       HT       0.417000       1.00800           0
     40284 TIP3     5992     TIP3     OH2      OT      -0.834000       15.9994           0
     40285 TIP3     5992     TIP3     H1       HT       0.417000       1.00800           0
     40286 TIP3     5992     TIP3     H2       HT       0.417000       1.00800           0
     40287 TIP3     5993     TIP3     OH2      OT      -0.834000       15.9994           0
     40288 TIP3     5993     TIP3     H1       HT       0.417000       1.00800           0
     40289 TIP3     5993     TIP3     H2       HT       0.417000       1.00800           0
     40290 TIP3     5994     TIP3     OH2      OT      -0.834000       15.9994           0
     40291 TIP3     5994     TIP3     H1       HT       0.417000       1.00800           0
     40292 TIP3     5994     TIP3     H2       HT       0.417000       1.00800           0
     40293 TIP3     5995     TIP3     OH2      OT      -0.834000       15.9994           0
     40294 TIP3     5995     TIP3     H1       HT       0.417000       1.00800           0
     40295 TIP3     5995     TIP3     H2       HT       0.417000       1.00800           0
     40296 TIP3     5996     TIP3     OH2      OT      -0.834000       15.9994           0
     40297 TIP3     5996     TIP3     H1       HT       0.417000       1.00800           0
     40298 TIP3     5996     TIP3     H2       HT       0.417000       1.00800           0
     40299 TIP3     5997     TIP3     OH2      OT      -0.834000       15.9994           0
     40300 TIP3     5997     TIP3     H1       HT       0.417000       1.00800           0
     40301 TIP3     5997     TIP3     H2       HT       0.417000       1.00800           0
     40302 TIP3     5998     TIP3     OH2      OT      -0.834000       15.9994           0
     40303 TIP3     5998     TIP3     H1       HT       0.417000       1.00800           0
     40304 TIP3     5998     TIP3     H2       HT       0.417000       1.00800           0
     40305 TIP3     5999     TIP3     OH2      OT      -0.834000       15.9994           0
     40306 TIP3     5999     TIP3     H1       HT       0.417000       1.00800           0
     40307 TIP3     5999     TIP3     H2       HT       0.417000       1.00800           0
     40308 TIP3     6000     TIP3     OH2      OT      -0.834000       15.9994           0
     40309 TIP3     6000     TIP3     H1       HT       0.417000       1.00800           0
     40310 TIP3     6000     TIP3     H2       HT       0.417000       1.00800           0
     40311 TIP3     6001     TIP3     OH2      OT      -0.834000       15.9994           0
     40312 TIP3     6001     TIP3     H1       HT       0.417000       1.00800           0
     40313 TIP3     6001     TIP3     H2       HT       0.417000       1.00800           0
     40314 TIP3     6002     TIP3     OH2      OT      -0.834000       15.9994           0
     40315 TIP3     6002     TIP3     H1       HT       0.417000       1.00800           0
     40316 TIP3     6002     TIP3     H2       HT       0.417000       1.00800           0
     40317 TIP3     6003     TIP3     OH2      OT      -0.834000       15.9994           0
     40318 TIP3     6003     TIP3     H1       HT       0.417000       1.00800           0
     40319 TIP3     6003     TIP3     H2       HT       0.417000       1.00800           0
     40320 TIP3     6004     TIP3     OH2      OT      -0.834000       15.9994           0
     40321 TIP3     6004     TIP3     H1       HT       0.417000       1.00800           0
     40322 TIP3     6004     TIP3     H2       HT       0.417000       1.00800           0
     40323 TIP3     6005     TIP3     OH2      OT      -0.834000       15.9994           0
     40324 TIP3     6005     TIP3     H1       HT       0.417000       1.00800           0
     40325 TIP3     6005     TIP3     H2       HT       0.417000       1.00800           0
     40326 TIP3     6006     TIP3     OH2      OT      -0.834000       15.9994           0
     40327 TIP3     6006     TIP3     H1       HT       0.417000       1.00800           0
     40328 TIP3     6006     TIP3     H2       HT       0.417000       1.00800           0
     40329 TIP3     6007     TIP3     OH2      OT      -0.834000       15.9994           0
     40330 TIP3     6007     TIP3     H1       HT       0.417000       1.00800           0
     40331 TIP3     6007     TIP3     H2       HT       0.417000       1.00800           0
     40332 TIP3     6008     TIP3     OH2      OT      -0.834000       15.9994           0
     40333 TIP3     6008     TIP3     H1       HT       0.417000       1.00800           0
     40334 TIP3     6008     TIP3     H2       HT       0.417000       1.00800           0
     40335 TIP3     6009     TIP3     OH2      OT      -0.834000       15.9994           0
     40336 TIP3     6009     TIP3     H1       HT       0.417000       1.00800           0
     40337 TIP3     6009     TIP3     H2       HT       0.417000       1.00800           0
     40338 TIP3     6010     TIP3     OH2      OT      -0.834000       15.9994           0
     40339 TIP3     6010     TIP3     H1       HT       0.417000       1.00800           0
     40340 TIP3     6010     TIP3     H2       HT       0.417000       1.00800           0
     40341 TIP3     6011     TIP3     OH2      OT      -0.834000       15.9994           0
     40342 TIP3     6011     TIP3     H1       HT       0.417000       1.00800           0
     40343 TIP3     6011     TIP3     H2       HT       0.417000       1.00800           0
     40344 TIP3     6012     TIP3     OH2      OT      -0.834000       15.9994           0
     40345 TIP3     6012     TIP3     H1       HT       0.417000       1.00800           0
     40346 TIP3     6012     TIP3     H2       HT       0.417000       1.00800           0
     40347 TIP3     6013     TIP3     OH2      OT      -0.834000       15.9994           0
     40348 TIP3     6013     TIP3     H1       HT       0.417000       1.00800           0
     40349 TIP3     6013     TIP3     H2       HT       0.417000       1.00800           0
     40350 TIP3     6014     TIP3     OH2      OT      -0.834000       15.9994           0
     40351 TIP3     6014     TIP3     H1       HT       0.417000       1.00800           0
     40352 TIP3     6014     TIP3     H2       HT       0.417000       1.00800           0
     40353 TIP3     6015     TIP3     OH2      OT      -0.834000       15.9994           0
     40354 TIP3     6015     TIP3     H1       HT       0.417000       1.00800           0
     40355 TIP3     6015     TIP3     H2       HT       0.417000       1.00800           0
     40356 TIP3     6016     TIP3     OH2      OT      -0.834000       15.9994           0
     40357 TIP3     6016     TIP3     H1       HT       0.417000       1.00800           0
     40358 TIP3     6016     TIP3     H2       HT       0.417000       1.00800           0
     40359 TIP3     6017     TIP3     OH2      OT      -0.834000       15.9994           0
     40360 TIP3     6017     TIP3     H1       HT       0.417000       1.00800           0
     40361 TIP3     6017     TIP3     H2       HT       0.417000       1.00800           0
     40362 TIP3     6018     TIP3     OH2      OT      -0.834000       15.9994           0
     40363 TIP3     6018     TIP3     H1       HT       0.417000       1.00800           0
     40364 TIP3     6018     TIP3     H2       HT       0.417000       1.00800           0
     40365 TIP3     6019     TIP3     OH2      OT      -0.834000       15.9994           0
     40366 TIP3     6019     TIP3     H1       HT       0.417000       1.00800           0
     40367 TIP3     6019     TIP3     H2       HT       0.417000       1.00800           0
     40368 TIP3     6020     TIP3     OH2      OT      -0.834000       15.9994           0
     40369 TIP3     6020     TIP3     H1       HT       0.417000       1.00800           0
     40370 TIP3     6020     TIP3     H2       HT       0.417000       1.00800           0
     40371 TIP3     6021     TIP3     OH2      OT      -0.834000       15.9994           0
     40372 TIP3     6021     TIP3     H1       HT       0.417000       1.00800           0
     40373 TIP3     6021     TIP3     H2       HT       0.417000       1.00800           0
     40374 TIP3     6022     TIP3     OH2      OT      -0.834000       15.9994           0
     40375 TIP3     6022     TIP3     H1       HT       0.417000       1.00800           0
     40376 TIP3     6022     TIP3     H2       HT       0.417000       1.00800           0
     40377 TIP3     6023     TIP3     OH2      OT      -0.834000       15.9994           0
     40378 TIP3     6023     TIP3     H1       HT       0.417000       1.00800           0
     40379 TIP3     6023     TIP3     H2       HT       0.417000       1.00800           0
     40380 TIP3     6024     TIP3     OH2      OT      -0.834000       15.9994           0
     40381 TIP3     6024     TIP3     H1       HT       0.417000       1.00800           0
     40382 TIP3     6024     TIP3     H2       HT       0.417000       1.00800           0
     40383 TIP3     6025     TIP3     OH2      OT      -0.834000       15.9994           0
     40384 TIP3     6025     TIP3     H1       HT       0.417000       1.00800           0
     40385 TIP3     6025     TIP3     H2       HT       0.417000       1.00800           0
     40386 TIP3     6026     TIP3     OH2      OT      -0.834000       15.9994           0
     40387 TIP3     6026     TIP3     H1       HT       0.417000       1.00800           0
     40388 TIP3     6026     TIP3     H2       HT       0.417000       1.00800           0
     40389 TIP3     6027     TIP3     OH2      OT      -0.834000       15.9994           0
     40390 TIP3     6027     TIP3     H1       HT       0.417000       1.00800           0
     40391 TIP3     6027     TIP3     H2       HT       0.417000       1.00800           0
     40392 TIP3     6028     TIP3     OH2      OT      -0.834000       15.9994           0
     40393 TIP3     6028     TIP3     H1       HT       0.417000       1.00800           0
     40394 TIP3     6028     TIP3     H2       HT       0.417000       1.00800           0
     40395 TIP3     6029     TIP3     OH2      OT      -0.834000       15.9994           0
     40396 TIP3     6029     TIP3     H1       HT       0.417000       1.00800           0
     40397 TIP3     6029     TIP3     H2       HT       0.417000       1.00800           0
     40398 TIP3     6030     TIP3     OH2      OT      -0.834000       15.9994           0
     40399 TIP3     6030     TIP3     H1       HT       0.417000       1.00800           0
     40400 TIP3     6030     TIP3     H2       HT       0.417000       1.00800           0
     40401 TIP3     6031     TIP3     OH2      OT      -0.834000       15.9994           0
     40402 TIP3     6031     TIP3     H1       HT       0.417000       1.00800           0
     40403 TIP3     6031     TIP3     H2       HT       0.417000       1.00800           0
     40404 TIP3     6032     TIP3     OH2      OT      -0.834000       15.9994           0
     40405 TIP3     6032     TIP3     H1       HT       0.417000       1.00800           0
     40406 TIP3     6032     TIP3     H2       HT       0.417000       1.00800           0
     40407 TIP3     6033     TIP3     OH2      OT      -0.834000       15.9994           0
     40408 TIP3     6033     TIP3     H1       HT       0.417000       1.00800           0
     40409 TIP3     6033     TIP3     H2       HT       0.417000       1.00800           0
     40410 TIP3     6034     TIP3     OH2      OT      -0.834000       15.9994           0
     40411 TIP3     6034     TIP3     H1       HT       0.417000       1.00800           0
     40412 TIP3     6034     TIP3     H2       HT       0.417000       1.00800           0
     40413 TIP3     6035     TIP3     OH2      OT      -0.834000       15.9994           0
     40414 TIP3     6035     TIP3     H1       HT       0.417000       1.00800           0
     40415 TIP3     6035     TIP3     H2       HT       0.417000       1.00800           0
     40416 TIP3     6036     TIP3     OH2      OT      -0.834000       15.9994           0
     40417 TIP3     6036     TIP3     H1       HT       0.417000       1.00800           0
     40418 TIP3     6036     TIP3     H2       HT       0.417000       1.00800           0
     40419 TIP3     6037     TIP3     OH2      OT      -0.834000       15.9994           0
     40420 TIP3     6037     TIP3     H1       HT       0.417000       1.00800           0
     40421 TIP3     6037     TIP3     H2       HT       0.417000       1.00800           0
     40422 TIP3     6038     TIP3     OH2      OT      -0.834000       15.9994           0
     40423 TIP3     6038     TIP3     H1       HT       0.417000       1.00800           0
     40424 TIP3     6038     TIP3     H2       HT       0.417000       1.00800           0
     40425 TIP3     6039     TIP3     OH2      OT      -0.834000       15.9994           0
     40426 TIP3     6039     TIP3     H1       HT       0.417000       1.00800           0
     40427 TIP3     6039     TIP3     H2       HT       0.417000       1.00800           0
     40428 TIP3     6040     TIP3     OH2      OT      -0.834000       15.9994           0
     40429 TIP3     6040     TIP3     H1       HT       0.417000       1.00800           0
     40430 TIP3     6040     TIP3     H2       HT       0.417000       1.00800           0
     40431 TIP3     6041     TIP3     OH2      OT      -0.834000       15.9994           0
     40432 TIP3     6041     TIP3     H1       HT       0.417000       1.00800           0
     40433 TIP3     6041     TIP3     H2       HT       0.417000       1.00800           0
     40434 TIP3     6042     TIP3     OH2      OT      -0.834000       15.9994           0
     40435 TIP3     6042     TIP3     H1       HT       0.417000       1.00800           0
     40436 TIP3     6042     TIP3     H2       HT       0.417000       1.00800           0
     40437 TIP3     6043     TIP3     OH2      OT      -0.834000       15.9994           0
     40438 TIP3     6043     TIP3     H1       HT       0.417000       1.00800           0
     40439 TIP3     6043     TIP3     H2       HT       0.417000       1.00800           0
     40440 TIP3     6044     TIP3     OH2      OT      -0.834000       15.9994           0
     40441 TIP3     6044     TIP3     H1       HT       0.417000       1.00800           0
     40442 TIP3     6044     TIP3     H2       HT       0.417000       1.00800           0
     40443 TIP3     6045     TIP3     OH2      OT      -0.834000       15.9994           0
     40444 TIP3     6045     TIP3     H1       HT       0.417000       1.00800           0
     40445 TIP3     6045     TIP3     H2       HT       0.417000       1.00800           0
     40446 TIP3     6046     TIP3     OH2      OT      -0.834000       15.9994           0
     40447 TIP3     6046     TIP3     H1       HT       0.417000       1.00800           0
     40448 TIP3     6046     TIP3     H2       HT       0.417000       1.00800           0
     40449 TIP3     6047     TIP3     OH2      OT      -0.834000       15.9994           0
     40450 TIP3     6047     TIP3     H1       HT       0.417000       1.00800           0
     40451 TIP3     6047     TIP3     H2       HT       0.417000       1.00800           0
     40452 TIP3     6048     TIP3     OH2      OT      -0.834000       15.9994           0
     40453 TIP3     6048     TIP3     H1       HT       0.417000       1.00800           0
     40454 TIP3     6048     TIP3     H2       HT       0.417000       1.00800           0
     40455 TIP3     6049     TIP3     OH2      OT      -0.834000       15.9994           0
     40456 TIP3     6049     TIP3     H1       HT       0.417000       1.00800           0
     40457 TIP3     6049     TIP3     H2       HT       0.417000       1.00800           0
     40458 TIP3     6050     TIP3     OH2      OT      -0.834000       15.9994           0
     40459 TIP3     6050     TIP3     H1       HT       0.417000       1.00800           0
     40460 TIP3     6050     TIP3     H2       HT       0.417000       1.00800           0
     40461 TIP3     6051     TIP3     OH2      OT      -0.834000       15.9994           0
     40462 TIP3     6051     TIP3     H1       HT       0.417000       1.00800           0
     40463 TIP3     6051     TIP3     H2       HT       0.417000       1.00800           0
     40464 TIP3     6052     TIP3     OH2      OT      -0.834000       15.9994           0
     40465 TIP3     6052     TIP3     H1       HT       0.417000       1.00800           0
     40466 TIP3     6052     TIP3     H2       HT       0.417000       1.00800           0
     40467 TIP3     6053     TIP3     OH2      OT      -0.834000       15.9994           0
     40468 TIP3     6053     TIP3     H1       HT       0.417000       1.00800           0
     40469 TIP3     6053     TIP3     H2       HT       0.417000       1.00800           0
     40470 TIP3     6054     TIP3     OH2      OT      -0.834000       15.9994           0
     40471 TIP3     6054     TIP3     H1       HT       0.417000       1.00800           0
     40472 TIP3     6054     TIP3     H2       HT       0.417000       1.00800           0
     40473 TIP3     6055     TIP3     OH2      OT      -0.834000       15.9994           0
     40474 TIP3     6055     TIP3     H1       HT       0.417000       1.00800           0
     40475 TIP3     6055     TIP3     H2       HT       0.417000       1.00800           0
     40476 TIP3     6056     TIP3     OH2      OT      -0.834000       15.9994           0
     40477 TIP3     6056     TIP3     H1       HT       0.417000       1.00800           0
     40478 TIP3     6056     TIP3     H2       HT       0.417000       1.00800           0
     40479 TIP3     6057     TIP3     OH2      OT      -0.834000       15.9994           0
     40480 TIP3     6057     TIP3     H1       HT       0.417000       1.00800           0
     40481 TIP3     6057     TIP3     H2       HT       0.417000       1.00800           0
     40482 TIP3     6058     TIP3     OH2      OT      -0.834000       15.9994           0
     40483 TIP3     6058     TIP3     H1       HT       0.417000       1.00800           0
     40484 TIP3     6058     TIP3     H2       HT       0.417000       1.00800           0
     40485 TIP3     6059     TIP3     OH2      OT      -0.834000       15.9994           0
     40486 TIP3     6059     TIP3     H1       HT       0.417000       1.00800           0
     40487 TIP3     6059     TIP3     H2       HT       0.417000       1.00800           0
     40488 TIP3     6060     TIP3     OH2      OT      -0.834000       15.9994           0
     40489 TIP3     6060     TIP3     H1       HT       0.417000       1.00800           0
     40490 TIP3     6060     TIP3     H2       HT       0.417000       1.00800           0
     40491 TIP3     6061     TIP3     OH2      OT      -0.834000       15.9994           0
     40492 TIP3     6061     TIP3     H1       HT       0.417000       1.00800           0
     40493 TIP3     6061     TIP3     H2       HT       0.417000       1.00800           0
     40494 TIP3     6062     TIP3     OH2      OT      -0.834000       15.9994           0
     40495 TIP3     6062     TIP3     H1       HT       0.417000       1.00800           0
     40496 TIP3     6062     TIP3     H2       HT       0.417000       1.00800           0
     40497 TIP3     6063     TIP3     OH2      OT      -0.834000       15.9994           0
     40498 TIP3     6063     TIP3     H1       HT       0.417000       1.00800           0
     40499 TIP3     6063     TIP3     H2       HT       0.417000       1.00800           0
     40500 TIP3     6064     TIP3     OH2      OT      -0.834000       15.9994           0
     40501 TIP3     6064     TIP3     H1       HT       0.417000       1.00800           0
     40502 TIP3     6064     TIP3     H2       HT       0.417000       1.00800           0
     40503 TIP3     6065     TIP3     OH2      OT      -0.834000       15.9994           0
     40504 TIP3     6065     TIP3     H1       HT       0.417000       1.00800           0
     40505 TIP3     6065     TIP3     H2       HT       0.417000       1.00800           0
     40506 TIP3     6066     TIP3     OH2      OT      -0.834000       15.9994           0
     40507 TIP3     6066     TIP3     H1       HT       0.417000       1.00800           0
     40508 TIP3     6066     TIP3     H2       HT       0.417000       1.00800           0
     40509 TIP3     6067     TIP3     OH2      OT      -0.834000       15.9994           0
     40510 TIP3     6067     TIP3     H1       HT       0.417000       1.00800           0
     40511 TIP3     6067     TIP3     H2       HT       0.417000       1.00800           0
     40512 TIP3     6068     TIP3     OH2      OT      -0.834000       15.9994           0
     40513 TIP3     6068     TIP3     H1       HT       0.417000       1.00800           0
     40514 TIP3     6068     TIP3     H2       HT       0.417000       1.00800           0
     40515 TIP3     6069     TIP3     OH2      OT      -0.834000       15.9994           0
     40516 TIP3     6069     TIP3     H1       HT       0.417000       1.00800           0
     40517 TIP3     6069     TIP3     H2       HT       0.417000       1.00800           0
     40518 TIP3     6070     TIP3     OH2      OT      -0.834000       15.9994           0
     40519 TIP3     6070     TIP3     H1       HT       0.417000       1.00800           0
     40520 TIP3     6070     TIP3     H2       HT       0.417000       1.00800           0
     40521 TIP3     6071     TIP3     OH2      OT      -0.834000       15.9994           0
     40522 TIP3     6071     TIP3     H1       HT       0.417000       1.00800           0
     40523 TIP3     6071     TIP3     H2       HT       0.417000       1.00800           0
     40524 TIP3     6072     TIP3     OH2      OT      -0.834000       15.9994           0
     40525 TIP3     6072     TIP3     H1       HT       0.417000       1.00800           0
     40526 TIP3     6072     TIP3     H2       HT       0.417000       1.00800           0
     40527 TIP3     6073     TIP3     OH2      OT      -0.834000       15.9994           0
     40528 TIP3     6073     TIP3     H1       HT       0.417000       1.00800           0
     40529 TIP3     6073     TIP3     H2       HT       0.417000       1.00800           0
     40530 TIP3     6074     TIP3     OH2      OT      -0.834000       15.9994           0
     40531 TIP3     6074     TIP3     H1       HT       0.417000       1.00800           0
     40532 TIP3     6074     TIP3     H2       HT       0.417000       1.00800           0
     40533 TIP3     6075     TIP3     OH2      OT      -0.834000       15.9994           0
     40534 TIP3     6075     TIP3     H1       HT       0.417000       1.00800           0
     40535 TIP3     6075     TIP3     H2       HT       0.417000       1.00800           0
     40536 TIP3     6076     TIP3     OH2      OT      -0.834000       15.9994           0
     40537 TIP3     6076     TIP3     H1       HT       0.417000       1.00800           0
     40538 TIP3     6076     TIP3     H2       HT       0.417000       1.00800           0
     40539 TIP3     6077     TIP3     OH2      OT      -0.834000       15.9994           0
     40540 TIP3     6077     TIP3     H1       HT       0.417000       1.00800           0
     40541 TIP3     6077     TIP3     H2       HT       0.417000       1.00800           0
     40542 TIP3     6078     TIP3     OH2      OT      -0.834000       15.9994           0
     40543 TIP3     6078     TIP3     H1       HT       0.417000       1.00800           0
     40544 TIP3     6078     TIP3     H2       HT       0.417000       1.00800           0
     40545 TIP3     6079     TIP3     OH2      OT      -0.834000       15.9994           0
     40546 TIP3     6079     TIP3     H1       HT       0.417000       1.00800           0
     40547 TIP3     6079     TIP3     H2       HT       0.417000       1.00800           0
     40548 TIP3     6080     TIP3     OH2      OT      -0.834000       15.9994           0
     40549 TIP3     6080     TIP3     H1       HT       0.417000       1.00800           0
     40550 TIP3     6080     TIP3     H2       HT       0.417000       1.00800           0
     40551 TIP3     6081     TIP3     OH2      OT      -0.834000       15.9994           0
     40552 TIP3     6081     TIP3     H1       HT       0.417000       1.00800           0
     40553 TIP3     6081     TIP3     H2       HT       0.417000       1.00800           0
     40554 TIP3     6082     TIP3     OH2      OT      -0.834000       15.9994           0
     40555 TIP3     6082     TIP3     H1       HT       0.417000       1.00800           0
     40556 TIP3     6082     TIP3     H2       HT       0.417000       1.00800           0
     40557 TIP3     6083     TIP3     OH2      OT      -0.834000       15.9994           0
     40558 TIP3     6083     TIP3     H1       HT       0.417000       1.00800           0
     40559 TIP3     6083     TIP3     H2       HT       0.417000       1.00800           0
     40560 TIP3     6084     TIP3     OH2      OT      -0.834000       15.9994           0
     40561 TIP3     6084     TIP3     H1       HT       0.417000       1.00800           0
     40562 TIP3     6084     TIP3     H2       HT       0.417000       1.00800           0
     40563 TIP3     6085     TIP3     OH2      OT      -0.834000       15.9994           0
     40564 TIP3     6085     TIP3     H1       HT       0.417000       1.00800           0
     40565 TIP3     6085     TIP3     H2       HT       0.417000       1.00800           0
     40566 TIP3     6086     TIP3     OH2      OT      -0.834000       15.9994           0
     40567 TIP3     6086     TIP3     H1       HT       0.417000       1.00800           0
     40568 TIP3     6086     TIP3     H2       HT       0.417000       1.00800           0
     40569 TIP3     6087     TIP3     OH2      OT      -0.834000       15.9994           0
     40570 TIP3     6087     TIP3     H1       HT       0.417000       1.00800           0
     40571 TIP3     6087     TIP3     H2       HT       0.417000       1.00800           0
     40572 TIP3     6088     TIP3     OH2      OT      -0.834000       15.9994           0
     40573 TIP3     6088     TIP3     H1       HT       0.417000       1.00800           0
     40574 TIP3     6088     TIP3     H2       HT       0.417000       1.00800           0
     40575 TIP3     6089     TIP3     OH2      OT      -0.834000       15.9994           0
     40576 TIP3     6089     TIP3     H1       HT       0.417000       1.00800           0
     40577 TIP3     6089     TIP3     H2       HT       0.417000       1.00800           0
     40578 TIP3     6090     TIP3     OH2      OT      -0.834000       15.9994           0
     40579 TIP3     6090     TIP3     H1       HT       0.417000       1.00800           0
     40580 TIP3     6090     TIP3     H2       HT       0.417000       1.00800           0
     40581 TIP3     6091     TIP3     OH2      OT      -0.834000       15.9994           0
     40582 TIP3     6091     TIP3     H1       HT       0.417000       1.00800           0
     40583 TIP3     6091     TIP3     H2       HT       0.417000       1.00800           0
     40584 TIP3     6092     TIP3     OH2      OT      -0.834000       15.9994           0
     40585 TIP3     6092     TIP3     H1       HT       0.417000       1.00800           0
     40586 TIP3     6092     TIP3     H2       HT       0.417000       1.00800           0
     40587 TIP3     6093     TIP3     OH2      OT      -0.834000       15.9994           0
     40588 TIP3     6093     TIP3     H1       HT       0.417000       1.00800           0
     40589 TIP3     6093     TIP3     H2       HT       0.417000       1.00800           0
     40590 TIP3     6094     TIP3     OH2      OT      -0.834000       15.9994           0
     40591 TIP3     6094     TIP3     H1       HT       0.417000       1.00800           0
     40592 TIP3     6094     TIP3     H2       HT       0.417000       1.00800           0
     40593 TIP3     6095     TIP3     OH2      OT      -0.834000       15.9994           0
     40594 TIP3     6095     TIP3     H1       HT       0.417000       1.00800           0
     40595 TIP3     6095     TIP3     H2       HT       0.417000       1.00800           0
     40596 TIP3     6096     TIP3     OH2      OT      -0.834000       15.9994           0
     40597 TIP3     6096     TIP3     H1       HT       0.417000       1.00800           0
     40598 TIP3     6096     TIP3     H2       HT       0.417000       1.00800           0
     40599 TIP3     6097     TIP3     OH2      OT      -0.834000       15.9994           0
     40600 TIP3     6097     TIP3     H1       HT       0.417000       1.00800           0
     40601 TIP3     6097     TIP3     H2       HT       0.417000       1.00800           0
     40602 TIP3     6098     TIP3     OH2      OT      -0.834000       15.9994           0
     40603 TIP3     6098     TIP3     H1       HT       0.417000       1.00800           0
     40604 TIP3     6098     TIP3     H2       HT       0.417000       1.00800           0
     40605 TIP3     6099     TIP3     OH2      OT      -0.834000       15.9994           0
     40606 TIP3     6099     TIP3     H1       HT       0.417000       1.00800           0
     40607 TIP3     6099     TIP3     H2       HT       0.417000       1.00800           0
     40608 TIP3     6100     TIP3     OH2      OT      -0.834000       15.9994           0
     40609 TIP3     6100     TIP3     H1       HT       0.417000       1.00800           0
     40610 TIP3     6100     TIP3     H2       HT       0.417000       1.00800           0
     40611 TIP3     6101     TIP3     OH2      OT      -0.834000       15.9994           0
     40612 TIP3     6101     TIP3     H1       HT       0.417000       1.00800           0
     40613 TIP3     6101     TIP3     H2       HT       0.417000       1.00800           0
     40614 TIP3     6102     TIP3     OH2      OT      -0.834000       15.9994           0
     40615 TIP3     6102     TIP3     H1       HT       0.417000       1.00800           0
     40616 TIP3     6102     TIP3     H2       HT       0.417000       1.00800           0
     40617 TIP3     6103     TIP3     OH2      OT      -0.834000       15.9994           0
     40618 TIP3     6103     TIP3     H1       HT       0.417000       1.00800           0
     40619 TIP3     6103     TIP3     H2       HT       0.417000       1.00800           0
     40620 TIP3     6104     TIP3     OH2      OT      -0.834000       15.9994           0
     40621 TIP3     6104     TIP3     H1       HT       0.417000       1.00800           0
     40622 TIP3     6104     TIP3     H2       HT       0.417000       1.00800           0
     40623 TIP3     6105     TIP3     OH2      OT      -0.834000       15.9994           0
     40624 TIP3     6105     TIP3     H1       HT       0.417000       1.00800           0
     40625 TIP3     6105     TIP3     H2       HT       0.417000       1.00800           0
     40626 TIP3     6106     TIP3     OH2      OT      -0.834000       15.9994           0
     40627 TIP3     6106     TIP3     H1       HT       0.417000       1.00800           0
     40628 TIP3     6106     TIP3     H2       HT       0.417000       1.00800           0
     40629 TIP3     6107     TIP3     OH2      OT      -0.834000       15.9994           0
     40630 TIP3     6107     TIP3     H1       HT       0.417000       1.00800           0
     40631 TIP3     6107     TIP3     H2       HT       0.417000       1.00800           0
     40632 TIP3     6108     TIP3     OH2      OT      -0.834000       15.9994           0
     40633 TIP3     6108     TIP3     H1       HT       0.417000       1.00800           0
     40634 TIP3     6108     TIP3     H2       HT       0.417000       1.00800           0
     40635 TIP3     6109     TIP3     OH2      OT      -0.834000       15.9994           0
     40636 TIP3     6109     TIP3     H1       HT       0.417000       1.00800           0
     40637 TIP3     6109     TIP3     H2       HT       0.417000       1.00800           0
     40638 TIP3     6110     TIP3     OH2      OT      -0.834000       15.9994           0
     40639 TIP3     6110     TIP3     H1       HT       0.417000       1.00800           0
     40640 TIP3     6110     TIP3     H2       HT       0.417000       1.00800           0
     40641 TIP3     6111     TIP3     OH2      OT      -0.834000       15.9994           0
     40642 TIP3     6111     TIP3     H1       HT       0.417000       1.00800           0
     40643 TIP3     6111     TIP3     H2       HT       0.417000       1.00800           0
     40644 TIP3     6112     TIP3     OH2      OT      -0.834000       15.9994           0
     40645 TIP3     6112     TIP3     H1       HT       0.417000       1.00800           0
     40646 TIP3     6112     TIP3     H2       HT       0.417000       1.00800           0
     40647 TIP3     6113     TIP3     OH2      OT      -0.834000       15.9994           0
     40648 TIP3     6113     TIP3     H1       HT       0.417000       1.00800           0
     40649 TIP3     6113     TIP3     H2       HT       0.417000       1.00800           0
     40650 TIP3     6114     TIP3     OH2      OT      -0.834000       15.9994           0
     40651 TIP3     6114     TIP3     H1       HT       0.417000       1.00800           0
     40652 TIP3     6114     TIP3     H2       HT       0.417000       1.00800           0
     40653 TIP3     6115     TIP3     OH2      OT      -0.834000       15.9994           0
     40654 TIP3     6115     TIP3     H1       HT       0.417000       1.00800           0
     40655 TIP3     6115     TIP3     H2       HT       0.417000       1.00800           0
     40656 TIP3     6116     TIP3     OH2      OT      -0.834000       15.9994           0
     40657 TIP3     6116     TIP3     H1       HT       0.417000       1.00800           0
     40658 TIP3     6116     TIP3     H2       HT       0.417000       1.00800           0
     40659 TIP3     6117     TIP3     OH2      OT      -0.834000       15.9994           0
     40660 TIP3     6117     TIP3     H1       HT       0.417000       1.00800           0
     40661 TIP3     6117     TIP3     H2       HT       0.417000       1.00800           0
     40662 TIP3     6118     TIP3     OH2      OT      -0.834000       15.9994           0
     40663 TIP3     6118     TIP3     H1       HT       0.417000       1.00800           0
     40664 TIP3     6118     TIP3     H2       HT       0.417000       1.00800           0
     40665 TIP3     6119     TIP3     OH2      OT      -0.834000       15.9994           0
     40666 TIP3     6119     TIP3     H1       HT       0.417000       1.00800           0
     40667 TIP3     6119     TIP3     H2       HT       0.417000       1.00800           0
     40668 TIP3     6120     TIP3     OH2      OT      -0.834000       15.9994           0
     40669 TIP3     6120     TIP3     H1       HT       0.417000       1.00800           0
     40670 TIP3     6120     TIP3     H2       HT       0.417000       1.00800           0
     40671 TIP3     6121     TIP3     OH2      OT      -0.834000       15.9994           0
     40672 TIP3     6121     TIP3     H1       HT       0.417000       1.00800           0
     40673 TIP3     6121     TIP3     H2       HT       0.417000       1.00800           0
     40674 TIP3     6122     TIP3     OH2      OT      -0.834000       15.9994           0
     40675 TIP3     6122     TIP3     H1       HT       0.417000       1.00800           0
     40676 TIP3     6122     TIP3     H2       HT       0.417000       1.00800           0
     40677 TIP3     6123     TIP3     OH2      OT      -0.834000       15.9994           0
     40678 TIP3     6123     TIP3     H1       HT       0.417000       1.00800           0
     40679 TIP3     6123     TIP3     H2       HT       0.417000       1.00800           0
     40680 TIP3     6124     TIP3     OH2      OT      -0.834000       15.9994           0
     40681 TIP3     6124     TIP3     H1       HT       0.417000       1.00800           0
     40682 TIP3     6124     TIP3     H2       HT       0.417000       1.00800           0
     40683 TIP3     6125     TIP3     OH2      OT      -0.834000       15.9994           0
     40684 TIP3     6125     TIP3     H1       HT       0.417000       1.00800           0
     40685 TIP3     6125     TIP3     H2       HT       0.417000       1.00800           0
     40686 TIP3     6126     TIP3     OH2      OT      -0.834000       15.9994           0
     40687 TIP3     6126     TIP3     H1       HT       0.417000       1.00800           0
     40688 TIP3     6126     TIP3     H2       HT       0.417000       1.00800           0
     40689 TIP3     6127     TIP3     OH2      OT      -0.834000       15.9994           0
     40690 TIP3     6127     TIP3     H1       HT       0.417000       1.00800           0
     40691 TIP3     6127     TIP3     H2       HT       0.417000       1.00800           0
     40692 TIP3     6128     TIP3     OH2      OT      -0.834000       15.9994           0
     40693 TIP3     6128     TIP3     H1       HT       0.417000       1.00800           0
     40694 TIP3     6128     TIP3     H2       HT       0.417000       1.00800           0
     40695 TIP3     6129     TIP3     OH2      OT      -0.834000       15.9994           0
     40696 TIP3     6129     TIP3     H1       HT       0.417000       1.00800           0
     40697 TIP3     6129     TIP3     H2       HT       0.417000       1.00800           0
     40698 TIP3     6130     TIP3     OH2      OT      -0.834000       15.9994           0
     40699 TIP3     6130     TIP3     H1       HT       0.417000       1.00800           0
     40700 TIP3     6130     TIP3     H2       HT       0.417000       1.00800           0
     40701 TIP3     6131     TIP3     OH2      OT      -0.834000       15.9994           0
     40702 TIP3     6131     TIP3     H1       HT       0.417000       1.00800           0
     40703 TIP3     6131     TIP3     H2       HT       0.417000       1.00800           0
     40704 TIP3     6132     TIP3     OH2      OT      -0.834000       15.9994           0
     40705 TIP3     6132     TIP3     H1       HT       0.417000       1.00800           0
     40706 TIP3     6132     TIP3     H2       HT       0.417000       1.00800           0
     40707 TIP3     6133     TIP3     OH2      OT      -0.834000       15.9994           0
     40708 TIP3     6133     TIP3     H1       HT       0.417000       1.00800           0
     40709 TIP3     6133     TIP3     H2       HT       0.417000       1.00800           0
     40710 TIP3     6134     TIP3     OH2      OT      -0.834000       15.9994           0
     40711 TIP3     6134     TIP3     H1       HT       0.417000       1.00800           0
     40712 TIP3     6134     TIP3     H2       HT       0.417000       1.00800           0
     40713 TIP3     6135     TIP3     OH2      OT      -0.834000       15.9994           0
     40714 TIP3     6135     TIP3     H1       HT       0.417000       1.00800           0
     40715 TIP3     6135     TIP3     H2       HT       0.417000       1.00800           0
     40716 TIP3     6136     TIP3     OH2      OT      -0.834000       15.9994           0
     40717 TIP3     6136     TIP3     H1       HT       0.417000       1.00800           0
     40718 TIP3     6136     TIP3     H2       HT       0.417000       1.00800           0
     40719 TIP3     6137     TIP3     OH2      OT      -0.834000       15.9994           0
     40720 TIP3     6137     TIP3     H1       HT       0.417000       1.00800           0
     40721 TIP3     6137     TIP3     H2       HT       0.417000       1.00800           0
     40722 TIP3     6138     TIP3     OH2      OT      -0.834000       15.9994           0
     40723 TIP3     6138     TIP3     H1       HT       0.417000       1.00800           0
     40724 TIP3     6138     TIP3     H2       HT       0.417000       1.00800           0
     40725 TIP3     6139     TIP3     OH2      OT      -0.834000       15.9994           0
     40726 TIP3     6139     TIP3     H1       HT       0.417000       1.00800           0
     40727 TIP3     6139     TIP3     H2       HT       0.417000       1.00800           0
     40728 TIP3     6140     TIP3     OH2      OT      -0.834000       15.9994           0
     40729 TIP3     6140     TIP3     H1       HT       0.417000       1.00800           0
     40730 TIP3     6140     TIP3     H2       HT       0.417000       1.00800           0
     40731 TIP3     6141     TIP3     OH2      OT      -0.834000       15.9994           0
     40732 TIP3     6141     TIP3     H1       HT       0.417000       1.00800           0
     40733 TIP3     6141     TIP3     H2       HT       0.417000       1.00800           0
     40734 TIP3     6142     TIP3     OH2      OT      -0.834000       15.9994           0
     40735 TIP3     6142     TIP3     H1       HT       0.417000       1.00800           0
     40736 TIP3     6142     TIP3     H2       HT       0.417000       1.00800           0
     40737 TIP3     6143     TIP3     OH2      OT      -0.834000       15.9994           0
     40738 TIP3     6143     TIP3     H1       HT       0.417000       1.00800           0
     40739 TIP3     6143     TIP3     H2       HT       0.417000       1.00800           0
     40740 TIP3     6144     TIP3     OH2      OT      -0.834000       15.9994           0
     40741 TIP3     6144     TIP3     H1       HT       0.417000       1.00800           0
     40742 TIP3     6144     TIP3     H2       HT       0.417000       1.00800           0
     40743 TIP3     6145     TIP3     OH2      OT      -0.834000       15.9994           0
     40744 TIP3     6145     TIP3     H1       HT       0.417000       1.00800           0
     40745 TIP3     6145     TIP3     H2       HT       0.417000       1.00800           0
     40746 TIP3     6146     TIP3     OH2      OT      -0.834000       15.9994           0
     40747 TIP3     6146     TIP3     H1       HT       0.417000       1.00800           0
     40748 TIP3     6146     TIP3     H2       HT       0.417000       1.00800           0
     40749 TIP3     6147     TIP3     OH2      OT      -0.834000       15.9994           0
     40750 TIP3     6147     TIP3     H1       HT       0.417000       1.00800           0
     40751 TIP3     6147     TIP3     H2       HT       0.417000       1.00800           0
     40752 TIP3     6148     TIP3     OH2      OT      -0.834000       15.9994           0
     40753 TIP3     6148     TIP3     H1       HT       0.417000       1.00800           0
     40754 TIP3     6148     TIP3     H2       HT       0.417000       1.00800           0
     40755 TIP3     6149     TIP3     OH2      OT      -0.834000       15.9994           0
     40756 TIP3     6149     TIP3     H1       HT       0.417000       1.00800           0
     40757 TIP3     6149     TIP3     H2       HT       0.417000       1.00800           0
     40758 TIP3     6150     TIP3     OH2      OT      -0.834000       15.9994           0
     40759 TIP3     6150     TIP3     H1       HT       0.417000       1.00800           0
     40760 TIP3     6150     TIP3     H2       HT       0.417000       1.00800           0
     40761 TIP3     6151     TIP3     OH2      OT      -0.834000       15.9994           0
     40762 TIP3     6151     TIP3     H1       HT       0.417000       1.00800           0
     40763 TIP3     6151     TIP3     H2       HT       0.417000       1.00800           0
     40764 TIP3     6152     TIP3     OH2      OT      -0.834000       15.9994           0
     40765 TIP3     6152     TIP3     H1       HT       0.417000       1.00800           0
     40766 TIP3     6152     TIP3     H2       HT       0.417000       1.00800           0
     40767 TIP3     6153     TIP3     OH2      OT      -0.834000       15.9994           0
     40768 TIP3     6153     TIP3     H1       HT       0.417000       1.00800           0
     40769 TIP3     6153     TIP3     H2       HT       0.417000       1.00800           0
     40770 TIP3     6154     TIP3     OH2      OT      -0.834000       15.9994           0
     40771 TIP3     6154     TIP3     H1       HT       0.417000       1.00800           0
     40772 TIP3     6154     TIP3     H2       HT       0.417000       1.00800           0
     40773 TIP3     6155     TIP3     OH2      OT      -0.834000       15.9994           0
     40774 TIP3     6155     TIP3     H1       HT       0.417000       1.00800           0
     40775 TIP3     6155     TIP3     H2       HT       0.417000       1.00800           0
     40776 TIP3     6156     TIP3     OH2      OT      -0.834000       15.9994           0
     40777 TIP3     6156     TIP3     H1       HT       0.417000       1.00800           0
     40778 TIP3     6156     TIP3     H2       HT       0.417000       1.00800           0
     40779 TIP3     6157     TIP3     OH2      OT      -0.834000       15.9994           0
     40780 TIP3     6157     TIP3     H1       HT       0.417000       1.00800           0
     40781 TIP3     6157     TIP3     H2       HT       0.417000       1.00800           0
     40782 TIP3     6158     TIP3     OH2      OT      -0.834000       15.9994           0
     40783 TIP3     6158     TIP3     H1       HT       0.417000       1.00800           0
     40784 TIP3     6158     TIP3     H2       HT       0.417000       1.00800           0
     40785 TIP3     6159     TIP3     OH2      OT      -0.834000       15.9994           0
     40786 TIP3     6159     TIP3     H1       HT       0.417000       1.00800           0
     40787 TIP3     6159     TIP3     H2       HT       0.417000       1.00800           0
     40788 TIP3     6160     TIP3     OH2      OT      -0.834000       15.9994           0
     40789 TIP3     6160     TIP3     H1       HT       0.417000       1.00800           0
     40790 TIP3     6160     TIP3     H2       HT       0.417000       1.00800           0
     40791 TIP3     6161     TIP3     OH2      OT      -0.834000       15.9994           0
     40792 TIP3     6161     TIP3     H1       HT       0.417000       1.00800           0
     40793 TIP3     6161     TIP3     H2       HT       0.417000       1.00800           0
     40794 TIP3     6162     TIP3     OH2      OT      -0.834000       15.9994           0
     40795 TIP3     6162     TIP3     H1       HT       0.417000       1.00800           0
     40796 TIP3     6162     TIP3     H2       HT       0.417000       1.00800           0
     40797 TIP3     6163     TIP3     OH2      OT      -0.834000       15.9994           0
     40798 TIP3     6163     TIP3     H1       HT       0.417000       1.00800           0
     40799 TIP3     6163     TIP3     H2       HT       0.417000       1.00800           0
     40800 TIP3     6164     TIP3     OH2      OT      -0.834000       15.9994           0
     40801 TIP3     6164     TIP3     H1       HT       0.417000       1.00800           0
     40802 TIP3     6164     TIP3     H2       HT       0.417000       1.00800           0
     40803 TIP3     6165     TIP3     OH2      OT      -0.834000       15.9994           0
     40804 TIP3     6165     TIP3     H1       HT       0.417000       1.00800           0
     40805 TIP3     6165     TIP3     H2       HT       0.417000       1.00800           0
     40806 TIP3     6166     TIP3     OH2      OT      -0.834000       15.9994           0
     40807 TIP3     6166     TIP3     H1       HT       0.417000       1.00800           0
     40808 TIP3     6166     TIP3     H2       HT       0.417000       1.00800           0
     40809 TIP3     6167     TIP3     OH2      OT      -0.834000       15.9994           0
     40810 TIP3     6167     TIP3     H1       HT       0.417000       1.00800           0
     40811 TIP3     6167     TIP3     H2       HT       0.417000       1.00800           0
     40812 TIP3     6168     TIP3     OH2      OT      -0.834000       15.9994           0
     40813 TIP3     6168     TIP3     H1       HT       0.417000       1.00800           0
     40814 TIP3     6168     TIP3     H2       HT       0.417000       1.00800           0
     40815 TIP3     6169     TIP3     OH2      OT      -0.834000       15.9994           0
     40816 TIP3     6169     TIP3     H1       HT       0.417000       1.00800           0
     40817 TIP3     6169     TIP3     H2       HT       0.417000       1.00800           0
     40818 TIP3     6170     TIP3     OH2      OT      -0.834000       15.9994           0
     40819 TIP3     6170     TIP3     H1       HT       0.417000       1.00800           0
     40820 TIP3     6170     TIP3     H2       HT       0.417000       1.00800           0
     40821 TIP3     6171     TIP3     OH2      OT      -0.834000       15.9994           0
     40822 TIP3     6171     TIP3     H1       HT       0.417000       1.00800           0
     40823 TIP3     6171     TIP3     H2       HT       0.417000       1.00800           0
     40824 TIP3     6172     TIP3     OH2      OT      -0.834000       15.9994           0
     40825 TIP3     6172     TIP3     H1       HT       0.417000       1.00800           0
     40826 TIP3     6172     TIP3     H2       HT       0.417000       1.00800           0
     40827 TIP3     6173     TIP3     OH2      OT      -0.834000       15.9994           0
     40828 TIP3     6173     TIP3     H1       HT       0.417000       1.00800           0
     40829 TIP3     6173     TIP3     H2       HT       0.417000       1.00800           0
     40830 TIP3     6174     TIP3     OH2      OT      -0.834000       15.9994           0
     40831 TIP3     6174     TIP3     H1       HT       0.417000       1.00800           0
     40832 TIP3     6174     TIP3     H2       HT       0.417000       1.00800           0
     40833 TIP3     6175     TIP3     OH2      OT      -0.834000       15.9994           0
     40834 TIP3     6175     TIP3     H1       HT       0.417000       1.00800           0
     40835 TIP3     6175     TIP3     H2       HT       0.417000       1.00800           0
     40836 TIP3     6176     TIP3     OH2      OT      -0.834000       15.9994           0
     40837 TIP3     6176     TIP3     H1       HT       0.417000       1.00800           0
     40838 TIP3     6176     TIP3     H2       HT       0.417000       1.00800           0
     40839 TIP3     6177     TIP3     OH2      OT      -0.834000       15.9994           0
     40840 TIP3     6177     TIP3     H1       HT       0.417000       1.00800           0
     40841 TIP3     6177     TIP3     H2       HT       0.417000       1.00800           0
     40842 TIP3     6178     TIP3     OH2      OT      -0.834000       15.9994           0
     40843 TIP3     6178     TIP3     H1       HT       0.417000       1.00800           0
     40844 TIP3     6178     TIP3     H2       HT       0.417000       1.00800           0
     40845 TIP3     6179     TIP3     OH2      OT      -0.834000       15.9994           0
     40846 TIP3     6179     TIP3     H1       HT       0.417000       1.00800           0
     40847 TIP3     6179     TIP3     H2       HT       0.417000       1.00800           0
     40848 TIP3     6180     TIP3     OH2      OT      -0.834000       15.9994           0
     40849 TIP3     6180     TIP3     H1       HT       0.417000       1.00800           0
     40850 TIP3     6180     TIP3     H2       HT       0.417000       1.00800           0
     40851 TIP3     6181     TIP3     OH2      OT      -0.834000       15.9994           0
     40852 TIP3     6181     TIP3     H1       HT       0.417000       1.00800           0
     40853 TIP3     6181     TIP3     H2       HT       0.417000       1.00800           0
     40854 TIP3     6182     TIP3     OH2      OT      -0.834000       15.9994           0
     40855 TIP3     6182     TIP3     H1       HT       0.417000       1.00800           0
     40856 TIP3     6182     TIP3     H2       HT       0.417000       1.00800           0
     40857 TIP3     6183     TIP3     OH2      OT      -0.834000       15.9994           0
     40858 TIP3     6183     TIP3     H1       HT       0.417000       1.00800           0
     40859 TIP3     6183     TIP3     H2       HT       0.417000       1.00800           0
     40860 TIP3     6184     TIP3     OH2      OT      -0.834000       15.9994           0
     40861 TIP3     6184     TIP3     H1       HT       0.417000       1.00800           0
     40862 TIP3     6184     TIP3     H2       HT       0.417000       1.00800           0
     40863 TIP3     6185     TIP3     OH2      OT      -0.834000       15.9994           0
     40864 TIP3     6185     TIP3     H1       HT       0.417000       1.00800           0
     40865 TIP3     6185     TIP3     H2       HT       0.417000       1.00800           0
     40866 TIP3     6186     TIP3     OH2      OT      -0.834000       15.9994           0
     40867 TIP3     6186     TIP3     H1       HT       0.417000       1.00800           0
     40868 TIP3     6186     TIP3     H2       HT       0.417000       1.00800           0
     40869 TIP3     6187     TIP3     OH2      OT      -0.834000       15.9994           0
     40870 TIP3     6187     TIP3     H1       HT       0.417000       1.00800           0
     40871 TIP3     6187     TIP3     H2       HT       0.417000       1.00800           0
     40872 TIP3     6188     TIP3     OH2      OT      -0.834000       15.9994           0
     40873 TIP3     6188     TIP3     H1       HT       0.417000       1.00800           0
     40874 TIP3     6188     TIP3     H2       HT       0.417000       1.00800           0
     40875 TIP3     6189     TIP3     OH2      OT      -0.834000       15.9994           0
     40876 TIP3     6189     TIP3     H1       HT       0.417000       1.00800           0
     40877 TIP3     6189     TIP3     H2       HT       0.417000       1.00800           0
     40878 TIP3     6190     TIP3     OH2      OT      -0.834000       15.9994           0
     40879 TIP3     6190     TIP3     H1       HT       0.417000       1.00800           0
     40880 TIP3     6190     TIP3     H2       HT       0.417000       1.00800           0
     40881 TIP3     6191     TIP3     OH2      OT      -0.834000       15.9994           0
     40882 TIP3     6191     TIP3     H1       HT       0.417000       1.00800           0
     40883 TIP3     6191     TIP3     H2       HT       0.417000       1.00800           0
     40884 TIP3     6192     TIP3     OH2      OT      -0.834000       15.9994           0
     40885 TIP3     6192     TIP3     H1       HT       0.417000       1.00800           0
     40886 TIP3     6192     TIP3     H2       HT       0.417000       1.00800           0
     40887 TIP3     6193     TIP3     OH2      OT      -0.834000       15.9994           0
     40888 TIP3     6193     TIP3     H1       HT       0.417000       1.00800           0
     40889 TIP3     6193     TIP3     H2       HT       0.417000       1.00800           0
     40890 TIP3     6194     TIP3     OH2      OT      -0.834000       15.9994           0
     40891 TIP3     6194     TIP3     H1       HT       0.417000       1.00800           0
     40892 TIP3     6194     TIP3     H2       HT       0.417000       1.00800           0
     40893 TIP3     6195     TIP3     OH2      OT      -0.834000       15.9994           0
     40894 TIP3     6195     TIP3     H1       HT       0.417000       1.00800           0
     40895 TIP3     6195     TIP3     H2       HT       0.417000       1.00800           0
     40896 TIP3     6196     TIP3     OH2      OT      -0.834000       15.9994           0
     40897 TIP3     6196     TIP3     H1       HT       0.417000       1.00800           0
     40898 TIP3     6196     TIP3     H2       HT       0.417000       1.00800           0
     40899 TIP3     6197     TIP3     OH2      OT      -0.834000       15.9994           0
     40900 TIP3     6197     TIP3     H1       HT       0.417000       1.00800           0
     40901 TIP3     6197     TIP3     H2       HT       0.417000       1.00800           0
     40902 TIP3     6198     TIP3     OH2      OT      -0.834000       15.9994           0
     40903 TIP3     6198     TIP3     H1       HT       0.417000       1.00800           0
     40904 TIP3     6198     TIP3     H2       HT       0.417000       1.00800           0
     40905 TIP3     6199     TIP3     OH2      OT      -0.834000       15.9994           0
     40906 TIP3     6199     TIP3     H1       HT       0.417000       1.00800           0
     40907 TIP3     6199     TIP3     H2       HT       0.417000       1.00800           0
     40908 TIP3     6200     TIP3     OH2      OT      -0.834000       15.9994           0
     40909 TIP3     6200     TIP3     H1       HT       0.417000       1.00800           0
     40910 TIP3     6200     TIP3     H2       HT       0.417000       1.00800           0
     40911 TIP3     6201     TIP3     OH2      OT      -0.834000       15.9994           0
     40912 TIP3     6201     TIP3     H1       HT       0.417000       1.00800           0
     40913 TIP3     6201     TIP3     H2       HT       0.417000       1.00800           0
     40914 TIP3     6202     TIP3     OH2      OT      -0.834000       15.9994           0
     40915 TIP3     6202     TIP3     H1       HT       0.417000       1.00800           0
     40916 TIP3     6202     TIP3     H2       HT       0.417000       1.00800           0
     40917 TIP3     6203     TIP3     OH2      OT      -0.834000       15.9994           0
     40918 TIP3     6203     TIP3     H1       HT       0.417000       1.00800           0
     40919 TIP3     6203     TIP3     H2       HT       0.417000       1.00800           0
     40920 TIP3     6204     TIP3     OH2      OT      -0.834000       15.9994           0
     40921 TIP3     6204     TIP3     H1       HT       0.417000       1.00800           0
     40922 TIP3     6204     TIP3     H2       HT       0.417000       1.00800           0
     40923 TIP3     6205     TIP3     OH2      OT      -0.834000       15.9994           0
     40924 TIP3     6205     TIP3     H1       HT       0.417000       1.00800           0
     40925 TIP3     6205     TIP3     H2       HT       0.417000       1.00800           0
     40926 TIP3     6206     TIP3     OH2      OT      -0.834000       15.9994           0
     40927 TIP3     6206     TIP3     H1       HT       0.417000       1.00800           0
     40928 TIP3     6206     TIP3     H2       HT       0.417000       1.00800           0
     40929 TIP3     6207     TIP3     OH2      OT      -0.834000       15.9994           0
     40930 TIP3     6207     TIP3     H1       HT       0.417000       1.00800           0
     40931 TIP3     6207     TIP3     H2       HT       0.417000       1.00800           0
     40932 TIP3     6208     TIP3     OH2      OT      -0.834000       15.9994           0
     40933 TIP3     6208     TIP3     H1       HT       0.417000       1.00800           0
     40934 TIP3     6208     TIP3     H2       HT       0.417000       1.00800           0
     40935 TIP3     6209     TIP3     OH2      OT      -0.834000       15.9994           0
     40936 TIP3     6209     TIP3     H1       HT       0.417000       1.00800           0
     40937 TIP3     6209     TIP3     H2       HT       0.417000       1.00800           0
     40938 TIP3     6210     TIP3     OH2      OT      -0.834000       15.9994           0
     40939 TIP3     6210     TIP3     H1       HT       0.417000       1.00800           0
     40940 TIP3     6210     TIP3     H2       HT       0.417000       1.00800           0
     40941 TIP3     6211     TIP3     OH2      OT      -0.834000       15.9994           0
     40942 TIP3     6211     TIP3     H1       HT       0.417000       1.00800           0
     40943 TIP3     6211     TIP3     H2       HT       0.417000       1.00800           0
     40944 TIP3     6212     TIP3     OH2      OT      -0.834000       15.9994           0
     40945 TIP3     6212     TIP3     H1       HT       0.417000       1.00800           0
     40946 TIP3     6212     TIP3     H2       HT       0.417000       1.00800           0
     40947 TIP3     6213     TIP3     OH2      OT      -0.834000       15.9994           0
     40948 TIP3     6213     TIP3     H1       HT       0.417000       1.00800           0
     40949 TIP3     6213     TIP3     H2       HT       0.417000       1.00800           0
     40950 TIP3     6214     TIP3     OH2      OT      -0.834000       15.9994           0
     40951 TIP3     6214     TIP3     H1       HT       0.417000       1.00800           0
     40952 TIP3     6214     TIP3     H2       HT       0.417000       1.00800           0
     40953 TIP3     6215     TIP3     OH2      OT      -0.834000       15.9994           0
     40954 TIP3     6215     TIP3     H1       HT       0.417000       1.00800           0
     40955 TIP3     6215     TIP3     H2       HT       0.417000       1.00800           0
     40956 TIP3     6216     TIP3     OH2      OT      -0.834000       15.9994           0
     40957 TIP3     6216     TIP3     H1       HT       0.417000       1.00800           0
     40958 TIP3     6216     TIP3     H2       HT       0.417000       1.00800           0
     40959 TIP3     6217     TIP3     OH2      OT      -0.834000       15.9994           0
     40960 TIP3     6217     TIP3     H1       HT       0.417000       1.00800           0
     40961 TIP3     6217     TIP3     H2       HT       0.417000       1.00800           0
     40962 TIP3     6218     TIP3     OH2      OT      -0.834000       15.9994           0
     40963 TIP3     6218     TIP3     H1       HT       0.417000       1.00800           0
     40964 TIP3     6218     TIP3     H2       HT       0.417000       1.00800           0
     40965 TIP3     6219     TIP3     OH2      OT      -0.834000       15.9994           0
     40966 TIP3     6219     TIP3     H1       HT       0.417000       1.00800           0
     40967 TIP3     6219     TIP3     H2       HT       0.417000       1.00800           0
     40968 TIP3     6220     TIP3     OH2      OT      -0.834000       15.9994           0
     40969 TIP3     6220     TIP3     H1       HT       0.417000       1.00800           0
     40970 TIP3     6220     TIP3     H2       HT       0.417000       1.00800           0
     40971 TIP3     6221     TIP3     OH2      OT      -0.834000       15.9994           0
     40972 TIP3     6221     TIP3     H1       HT       0.417000       1.00800           0
     40973 TIP3     6221     TIP3     H2       HT       0.417000       1.00800           0
     40974 TIP3     6222     TIP3     OH2      OT      -0.834000       15.9994           0
     40975 TIP3     6222     TIP3     H1       HT       0.417000       1.00800           0
     40976 TIP3     6222     TIP3     H2       HT       0.417000       1.00800           0
     40977 TIP3     6223     TIP3     OH2      OT      -0.834000       15.9994           0
     40978 TIP3     6223     TIP3     H1       HT       0.417000       1.00800           0
     40979 TIP3     6223     TIP3     H2       HT       0.417000       1.00800           0
     40980 TIP3     6224     TIP3     OH2      OT      -0.834000       15.9994           0
     40981 TIP3     6224     TIP3     H1       HT       0.417000       1.00800           0
     40982 TIP3     6224     TIP3     H2       HT       0.417000       1.00800           0
     40983 TIP3     6225     TIP3     OH2      OT      -0.834000       15.9994           0
     40984 TIP3     6225     TIP3     H1       HT       0.417000       1.00800           0
     40985 TIP3     6225     TIP3     H2       HT       0.417000       1.00800           0
     40986 TIP3     6226     TIP3     OH2      OT      -0.834000       15.9994           0
     40987 TIP3     6226     TIP3     H1       HT       0.417000       1.00800           0
     40988 TIP3     6226     TIP3     H2       HT       0.417000       1.00800           0
     40989 TIP3     6227     TIP3     OH2      OT      -0.834000       15.9994           0
     40990 TIP3     6227     TIP3     H1       HT       0.417000       1.00800           0
     40991 TIP3     6227     TIP3     H2       HT       0.417000       1.00800           0
     40992 TIP3     6228     TIP3     OH2      OT      -0.834000       15.9994           0
     40993 TIP3     6228     TIP3     H1       HT       0.417000       1.00800           0
     40994 TIP3     6228     TIP3     H2       HT       0.417000       1.00800           0
     40995 TIP3     6229     TIP3     OH2      OT      -0.834000       15.9994           0
     40996 TIP3     6229     TIP3     H1       HT       0.417000       1.00800           0
     40997 TIP3     6229     TIP3     H2       HT       0.417000       1.00800           0
     40998 TIP3     6230     TIP3     OH2      OT      -0.834000       15.9994           0
     40999 TIP3     6230     TIP3     H1       HT       0.417000       1.00800           0
     41000 TIP3     6230     TIP3     H2       HT       0.417000       1.00800           0
     41001 TIP3     6231     TIP3     OH2      OT      -0.834000       15.9994           0
     41002 TIP3     6231     TIP3     H1       HT       0.417000       1.00800           0
     41003 TIP3     6231     TIP3     H2       HT       0.417000       1.00800           0
     41004 TIP3     6232     TIP3     OH2      OT      -0.834000       15.9994           0
     41005 TIP3     6232     TIP3     H1       HT       0.417000       1.00800           0
     41006 TIP3     6232     TIP3     H2       HT       0.417000       1.00800           0
     41007 TIP3     6233     TIP3     OH2      OT      -0.834000       15.9994           0
     41008 TIP3     6233     TIP3     H1       HT       0.417000       1.00800           0
     41009 TIP3     6233     TIP3     H2       HT       0.417000       1.00800           0
     41010 TIP3     6234     TIP3     OH2      OT      -0.834000       15.9994           0
     41011 TIP3     6234     TIP3     H1       HT       0.417000       1.00800           0
     41012 TIP3     6234     TIP3     H2       HT       0.417000       1.00800           0
     41013 TIP3     6235     TIP3     OH2      OT      -0.834000       15.9994           0
     41014 TIP3     6235     TIP3     H1       HT       0.417000       1.00800           0
     41015 TIP3     6235     TIP3     H2       HT       0.417000       1.00800           0
     41016 TIP3     6236     TIP3     OH2      OT      -0.834000       15.9994           0
     41017 TIP3     6236     TIP3     H1       HT       0.417000       1.00800           0
     41018 TIP3     6236     TIP3     H2       HT       0.417000       1.00800           0
     41019 TIP3     6237     TIP3     OH2      OT      -0.834000       15.9994           0
     41020 TIP3     6237     TIP3     H1       HT       0.417000       1.00800           0
     41021 TIP3     6237     TIP3     H2       HT       0.417000       1.00800           0
     41022 TIP3     6238     TIP3     OH2      OT      -0.834000       15.9994           0
     41023 TIP3     6238     TIP3     H1       HT       0.417000       1.00800           0
     41024 TIP3     6238     TIP3     H2       HT       0.417000       1.00800           0
     41025 TIP3     6239     TIP3     OH2      OT      -0.834000       15.9994           0
     41026 TIP3     6239     TIP3     H1       HT       0.417000       1.00800           0
     41027 TIP3     6239     TIP3     H2       HT       0.417000       1.00800           0
     41028 TIP3     6240     TIP3     OH2      OT      -0.834000       15.9994           0
     41029 TIP3     6240     TIP3     H1       HT       0.417000       1.00800           0
     41030 TIP3     6240     TIP3     H2       HT       0.417000       1.00800           0
     41031 TIP3     6241     TIP3     OH2      OT      -0.834000       15.9994           0
     41032 TIP3     6241     TIP3     H1       HT       0.417000       1.00800           0
     41033 TIP3     6241     TIP3     H2       HT       0.417000       1.00800           0
     41034 TIP3     6242     TIP3     OH2      OT      -0.834000       15.9994           0
     41035 TIP3     6242     TIP3     H1       HT       0.417000       1.00800           0
     41036 TIP3     6242     TIP3     H2       HT       0.417000       1.00800           0
     41037 TIP3     6243     TIP3     OH2      OT      -0.834000       15.9994           0
     41038 TIP3     6243     TIP3     H1       HT       0.417000       1.00800           0
     41039 TIP3     6243     TIP3     H2       HT       0.417000       1.00800           0
     41040 TIP3     6244     TIP3     OH2      OT      -0.834000       15.9994           0
     41041 TIP3     6244     TIP3     H1       HT       0.417000       1.00800           0
     41042 TIP3     6244     TIP3     H2       HT       0.417000       1.00800           0
     41043 TIP3     6245     TIP3     OH2      OT      -0.834000       15.9994           0
     41044 TIP3     6245     TIP3     H1       HT       0.417000       1.00800           0
     41045 TIP3     6245     TIP3     H2       HT       0.417000       1.00800           0
     41046 TIP3     6246     TIP3     OH2      OT      -0.834000       15.9994           0
     41047 TIP3     6246     TIP3     H1       HT       0.417000       1.00800           0
     41048 TIP3     6246     TIP3     H2       HT       0.417000       1.00800           0
     41049 TIP3     6247     TIP3     OH2      OT      -0.834000       15.9994           0
     41050 TIP3     6247     TIP3     H1       HT       0.417000       1.00800           0
     41051 TIP3     6247     TIP3     H2       HT       0.417000       1.00800           0
     41052 TIP3     6248     TIP3     OH2      OT      -0.834000       15.9994           0
     41053 TIP3     6248     TIP3     H1       HT       0.417000       1.00800           0
     41054 TIP3     6248     TIP3     H2       HT       0.417000       1.00800           0
     41055 TIP3     6249     TIP3     OH2      OT      -0.834000       15.9994           0
     41056 TIP3     6249     TIP3     H1       HT       0.417000       1.00800           0
     41057 TIP3     6249     TIP3     H2       HT       0.417000       1.00800           0
     41058 TIP3     6250     TIP3     OH2      OT      -0.834000       15.9994           0
     41059 TIP3     6250     TIP3     H1       HT       0.417000       1.00800           0
     41060 TIP3     6250     TIP3     H2       HT       0.417000       1.00800           0
     41061 TIP3     6251     TIP3     OH2      OT      -0.834000       15.9994           0
     41062 TIP3     6251     TIP3     H1       HT       0.417000       1.00800           0
     41063 TIP3     6251     TIP3     H2       HT       0.417000       1.00800           0
     41064 TIP3     6252     TIP3     OH2      OT      -0.834000       15.9994           0
     41065 TIP3     6252     TIP3     H1       HT       0.417000       1.00800           0
     41066 TIP3     6252     TIP3     H2       HT       0.417000       1.00800           0
     41067 TIP3     6253     TIP3     OH2      OT      -0.834000       15.9994           0
     41068 TIP3     6253     TIP3     H1       HT       0.417000       1.00800           0
     41069 TIP3     6253     TIP3     H2       HT       0.417000       1.00800           0
     41070 TIP3     6254     TIP3     OH2      OT      -0.834000       15.9994           0
     41071 TIP3     6254     TIP3     H1       HT       0.417000       1.00800           0
     41072 TIP3     6254     TIP3     H2       HT       0.417000       1.00800           0
     41073 TIP3     6255     TIP3     OH2      OT      -0.834000       15.9994           0
     41074 TIP3     6255     TIP3     H1       HT       0.417000       1.00800           0
     41075 TIP3     6255     TIP3     H2       HT       0.417000       1.00800           0
     41076 TIP3     6256     TIP3     OH2      OT      -0.834000       15.9994           0
     41077 TIP3     6256     TIP3     H1       HT       0.417000       1.00800           0
     41078 TIP3     6256     TIP3     H2       HT       0.417000       1.00800           0
     41079 TIP3     6257     TIP3     OH2      OT      -0.834000       15.9994           0
     41080 TIP3     6257     TIP3     H1       HT       0.417000       1.00800           0
     41081 TIP3     6257     TIP3     H2       HT       0.417000       1.00800           0
     41082 TIP3     6258     TIP3     OH2      OT      -0.834000       15.9994           0
     41083 TIP3     6258     TIP3     H1       HT       0.417000       1.00800           0
     41084 TIP3     6258     TIP3     H2       HT       0.417000       1.00800           0
     41085 TIP3     6259     TIP3     OH2      OT      -0.834000       15.9994           0
     41086 TIP3     6259     TIP3     H1       HT       0.417000       1.00800           0
     41087 TIP3     6259     TIP3     H2       HT       0.417000       1.00800           0
     41088 TIP3     6260     TIP3     OH2      OT      -0.834000       15.9994           0
     41089 TIP3     6260     TIP3     H1       HT       0.417000       1.00800           0
     41090 TIP3     6260     TIP3     H2       HT       0.417000       1.00800           0
     41091 TIP3     6261     TIP3     OH2      OT      -0.834000       15.9994           0
     41092 TIP3     6261     TIP3     H1       HT       0.417000       1.00800           0
     41093 TIP3     6261     TIP3     H2       HT       0.417000       1.00800           0
     41094 TIP3     6262     TIP3     OH2      OT      -0.834000       15.9994           0
     41095 TIP3     6262     TIP3     H1       HT       0.417000       1.00800           0
     41096 TIP3     6262     TIP3     H2       HT       0.417000       1.00800           0
     41097 TIP3     6263     TIP3     OH2      OT      -0.834000       15.9994           0
     41098 TIP3     6263     TIP3     H1       HT       0.417000       1.00800           0
     41099 TIP3     6263     TIP3     H2       HT       0.417000       1.00800           0
     41100 TIP3     6264     TIP3     OH2      OT      -0.834000       15.9994           0
     41101 TIP3     6264     TIP3     H1       HT       0.417000       1.00800           0
     41102 TIP3     6264     TIP3     H2       HT       0.417000       1.00800           0
     41103 TIP3     6265     TIP3     OH2      OT      -0.834000       15.9994           0
     41104 TIP3     6265     TIP3     H1       HT       0.417000       1.00800           0
     41105 TIP3     6265     TIP3     H2       HT       0.417000       1.00800           0
     41106 TIP3     6266     TIP3     OH2      OT      -0.834000       15.9994           0
     41107 TIP3     6266     TIP3     H1       HT       0.417000       1.00800           0
     41108 TIP3     6266     TIP3     H2       HT       0.417000       1.00800           0
     41109 TIP3     6267     TIP3     OH2      OT      -0.834000       15.9994           0
     41110 TIP3     6267     TIP3     H1       HT       0.417000       1.00800           0
     41111 TIP3     6267     TIP3     H2       HT       0.417000       1.00800           0
     41112 TIP3     6268     TIP3     OH2      OT      -0.834000       15.9994           0
     41113 TIP3     6268     TIP3     H1       HT       0.417000       1.00800           0
     41114 TIP3     6268     TIP3     H2       HT       0.417000       1.00800           0
     41115 TIP3     6269     TIP3     OH2      OT      -0.834000       15.9994           0
     41116 TIP3     6269     TIP3     H1       HT       0.417000       1.00800           0
     41117 TIP3     6269     TIP3     H2       HT       0.417000       1.00800           0
     41118 TIP3     6270     TIP3     OH2      OT      -0.834000       15.9994           0
     41119 TIP3     6270     TIP3     H1       HT       0.417000       1.00800           0
     41120 TIP3     6270     TIP3     H2       HT       0.417000       1.00800           0
     41121 TIP3     6271     TIP3     OH2      OT      -0.834000       15.9994           0
     41122 TIP3     6271     TIP3     H1       HT       0.417000       1.00800           0
     41123 TIP3     6271     TIP3     H2       HT       0.417000       1.00800           0
     41124 TIP3     6272     TIP3     OH2      OT      -0.834000       15.9994           0
     41125 TIP3     6272     TIP3     H1       HT       0.417000       1.00800           0
     41126 TIP3     6272     TIP3     H2       HT       0.417000       1.00800           0
     41127 TIP3     6273     TIP3     OH2      OT      -0.834000       15.9994           0
     41128 TIP3     6273     TIP3     H1       HT       0.417000       1.00800           0
     41129 TIP3     6273     TIP3     H2       HT       0.417000       1.00800           0
     41130 TIP3     6274     TIP3     OH2      OT      -0.834000       15.9994           0
     41131 TIP3     6274     TIP3     H1       HT       0.417000       1.00800           0
     41132 TIP3     6274     TIP3     H2       HT       0.417000       1.00800           0
     41133 TIP3     6275     TIP3     OH2      OT      -0.834000       15.9994           0
     41134 TIP3     6275     TIP3     H1       HT       0.417000       1.00800           0
     41135 TIP3     6275     TIP3     H2       HT       0.417000       1.00800           0
     41136 TIP3     6276     TIP3     OH2      OT      -0.834000       15.9994           0
     41137 TIP3     6276     TIP3     H1       HT       0.417000       1.00800           0
     41138 TIP3     6276     TIP3     H2       HT       0.417000       1.00800           0
     41139 TIP3     6277     TIP3     OH2      OT      -0.834000       15.9994           0
     41140 TIP3     6277     TIP3     H1       HT       0.417000       1.00800           0
     41141 TIP3     6277     TIP3     H2       HT       0.417000       1.00800           0
     41142 TIP3     6278     TIP3     OH2      OT      -0.834000       15.9994           0
     41143 TIP3     6278     TIP3     H1       HT       0.417000       1.00800           0
     41144 TIP3     6278     TIP3     H2       HT       0.417000       1.00800           0
     41145 TIP3     6279     TIP3     OH2      OT      -0.834000       15.9994           0
     41146 TIP3     6279     TIP3     H1       HT       0.417000       1.00800           0
     41147 TIP3     6279     TIP3     H2       HT       0.417000       1.00800           0
     41148 TIP3     6280     TIP3     OH2      OT      -0.834000       15.9994           0
     41149 TIP3     6280     TIP3     H1       HT       0.417000       1.00800           0
     41150 TIP3     6280     TIP3     H2       HT       0.417000       1.00800           0
     41151 TIP3     6281     TIP3     OH2      OT      -0.834000       15.9994           0
     41152 TIP3     6281     TIP3     H1       HT       0.417000       1.00800           0
     41153 TIP3     6281     TIP3     H2       HT       0.417000       1.00800           0
     41154 TIP3     6282     TIP3     OH2      OT      -0.834000       15.9994           0
     41155 TIP3     6282     TIP3     H1       HT       0.417000       1.00800           0
     41156 TIP3     6282     TIP3     H2       HT       0.417000       1.00800           0
     41157 TIP3     6283     TIP3     OH2      OT      -0.834000       15.9994           0
     41158 TIP3     6283     TIP3     H1       HT       0.417000       1.00800           0
     41159 TIP3     6283     TIP3     H2       HT       0.417000       1.00800           0
     41160 TIP3     6284     TIP3     OH2      OT      -0.834000       15.9994           0
     41161 TIP3     6284     TIP3     H1       HT       0.417000       1.00800           0
     41162 TIP3     6284     TIP3     H2       HT       0.417000       1.00800           0
     41163 TIP3     6285     TIP3     OH2      OT      -0.834000       15.9994           0
     41164 TIP3     6285     TIP3     H1       HT       0.417000       1.00800           0
     41165 TIP3     6285     TIP3     H2       HT       0.417000       1.00800           0
     41166 TIP3     6286     TIP3     OH2      OT      -0.834000       15.9994           0
     41167 TIP3     6286     TIP3     H1       HT       0.417000       1.00800           0
     41168 TIP3     6286     TIP3     H2       HT       0.417000       1.00800           0
     41169 TIP3     6287     TIP3     OH2      OT      -0.834000       15.9994           0
     41170 TIP3     6287     TIP3     H1       HT       0.417000       1.00800           0
     41171 TIP3     6287     TIP3     H2       HT       0.417000       1.00800           0
     41172 TIP3     6288     TIP3     OH2      OT      -0.834000       15.9994           0
     41173 TIP3     6288     TIP3     H1       HT       0.417000       1.00800           0
     41174 TIP3     6288     TIP3     H2       HT       0.417000       1.00800           0
     41175 TIP3     6289     TIP3     OH2      OT      -0.834000       15.9994           0
     41176 TIP3     6289     TIP3     H1       HT       0.417000       1.00800           0
     41177 TIP3     6289     TIP3     H2       HT       0.417000       1.00800           0
     41178 TIP3     6290     TIP3     OH2      OT      -0.834000       15.9994           0
     41179 TIP3     6290     TIP3     H1       HT       0.417000       1.00800           0
     41180 TIP3     6290     TIP3     H2       HT       0.417000       1.00800           0
     41181 TIP3     6291     TIP3     OH2      OT      -0.834000       15.9994           0
     41182 TIP3     6291     TIP3     H1       HT       0.417000       1.00800           0
     41183 TIP3     6291     TIP3     H2       HT       0.417000       1.00800           0
     41184 TIP3     6292     TIP3     OH2      OT      -0.834000       15.9994           0
     41185 TIP3     6292     TIP3     H1       HT       0.417000       1.00800           0
     41186 TIP3     6292     TIP3     H2       HT       0.417000       1.00800           0
     41187 TIP3     6293     TIP3     OH2      OT      -0.834000       15.9994           0
     41188 TIP3     6293     TIP3     H1       HT       0.417000       1.00800           0
     41189 TIP3     6293     TIP3     H2       HT       0.417000       1.00800           0
     41190 TIP3     6294     TIP3     OH2      OT      -0.834000       15.9994           0
     41191 TIP3     6294     TIP3     H1       HT       0.417000       1.00800           0
     41192 TIP3     6294     TIP3     H2       HT       0.417000       1.00800           0
     41193 TIP3     6295     TIP3     OH2      OT      -0.834000       15.9994           0
     41194 TIP3     6295     TIP3     H1       HT       0.417000       1.00800           0
     41195 TIP3     6295     TIP3     H2       HT       0.417000       1.00800           0
     41196 TIP3     6296     TIP3     OH2      OT      -0.834000       15.9994           0
     41197 TIP3     6296     TIP3     H1       HT       0.417000       1.00800           0
     41198 TIP3     6296     TIP3     H2       HT       0.417000       1.00800           0
     41199 TIP3     6297     TIP3     OH2      OT      -0.834000       15.9994           0
     41200 TIP3     6297     TIP3     H1       HT       0.417000       1.00800           0
     41201 TIP3     6297     TIP3     H2       HT       0.417000       1.00800           0
     41202 TIP3     6298     TIP3     OH2      OT      -0.834000       15.9994           0
     41203 TIP3     6298     TIP3     H1       HT       0.417000       1.00800           0
     41204 TIP3     6298     TIP3     H2       HT       0.417000       1.00800           0
     41205 TIP3     6299     TIP3     OH2      OT      -0.834000       15.9994           0
     41206 TIP3     6299     TIP3     H1       HT       0.417000       1.00800           0
     41207 TIP3     6299     TIP3     H2       HT       0.417000       1.00800           0
     41208 TIP3     6300     TIP3     OH2      OT      -0.834000       15.9994           0
     41209 TIP3     6300     TIP3     H1       HT       0.417000       1.00800           0
     41210 TIP3     6300     TIP3     H2       HT       0.417000       1.00800           0
     41211 TIP3     6301     TIP3     OH2      OT      -0.834000       15.9994           0
     41212 TIP3     6301     TIP3     H1       HT       0.417000       1.00800           0
     41213 TIP3     6301     TIP3     H2       HT       0.417000       1.00800           0
     41214 TIP3     6302     TIP3     OH2      OT      -0.834000       15.9994           0
     41215 TIP3     6302     TIP3     H1       HT       0.417000       1.00800           0
     41216 TIP3     6302     TIP3     H2       HT       0.417000       1.00800           0
     41217 TIP3     6303     TIP3     OH2      OT      -0.834000       15.9994           0
     41218 TIP3     6303     TIP3     H1       HT       0.417000       1.00800           0
     41219 TIP3     6303     TIP3     H2       HT       0.417000       1.00800           0
     41220 TIP3     6304     TIP3     OH2      OT      -0.834000       15.9994           0
     41221 TIP3     6304     TIP3     H1       HT       0.417000       1.00800           0
     41222 TIP3     6304     TIP3     H2       HT       0.417000       1.00800           0
     41223 TIP3     6305     TIP3     OH2      OT      -0.834000       15.9994           0
     41224 TIP3     6305     TIP3     H1       HT       0.417000       1.00800           0
     41225 TIP3     6305     TIP3     H2       HT       0.417000       1.00800           0
     41226 TIP3     6306     TIP3     OH2      OT      -0.834000       15.9994           0
     41227 TIP3     6306     TIP3     H1       HT       0.417000       1.00800           0
     41228 TIP3     6306     TIP3     H2       HT       0.417000       1.00800           0
     41229 TIP3     6307     TIP3     OH2      OT      -0.834000       15.9994           0
     41230 TIP3     6307     TIP3     H1       HT       0.417000       1.00800           0
     41231 TIP3     6307     TIP3     H2       HT       0.417000       1.00800           0
     41232 TIP3     6308     TIP3     OH2      OT      -0.834000       15.9994           0
     41233 TIP3     6308     TIP3     H1       HT       0.417000       1.00800           0
     41234 TIP3     6308     TIP3     H2       HT       0.417000       1.00800           0
     41235 TIP3     6309     TIP3     OH2      OT      -0.834000       15.9994           0
     41236 TIP3     6309     TIP3     H1       HT       0.417000       1.00800           0
     41237 TIP3     6309     TIP3     H2       HT       0.417000       1.00800           0
     41238 TIP3     6310     TIP3     OH2      OT      -0.834000       15.9994           0
     41239 TIP3     6310     TIP3     H1       HT       0.417000       1.00800           0
     41240 TIP3     6310     TIP3     H2       HT       0.417000       1.00800           0
     41241 TIP3     6311     TIP3     OH2      OT      -0.834000       15.9994           0
     41242 TIP3     6311     TIP3     H1       HT       0.417000       1.00800           0
     41243 TIP3     6311     TIP3     H2       HT       0.417000       1.00800           0
     41244 TIP3     6312     TIP3     OH2      OT      -0.834000       15.9994           0
     41245 TIP3     6312     TIP3     H1       HT       0.417000       1.00800           0
     41246 TIP3     6312     TIP3     H2       HT       0.417000       1.00800           0
     41247 TIP3     6313     TIP3     OH2      OT      -0.834000       15.9994           0
     41248 TIP3     6313     TIP3     H1       HT       0.417000       1.00800           0
     41249 TIP3     6313     TIP3     H2       HT       0.417000       1.00800           0
     41250 TIP3     6314     TIP3     OH2      OT      -0.834000       15.9994           0
     41251 TIP3     6314     TIP3     H1       HT       0.417000       1.00800           0
     41252 TIP3     6314     TIP3     H2       HT       0.417000       1.00800           0
     41253 TIP3     6315     TIP3     OH2      OT      -0.834000       15.9994           0
     41254 TIP3     6315     TIP3     H1       HT       0.417000       1.00800           0
     41255 TIP3     6315     TIP3     H2       HT       0.417000       1.00800           0
     41256 TIP3     6316     TIP3     OH2      OT      -0.834000       15.9994           0
     41257 TIP3     6316     TIP3     H1       HT       0.417000       1.00800           0
     41258 TIP3     6316     TIP3     H2       HT       0.417000       1.00800           0
     41259 TIP3     6317     TIP3     OH2      OT      -0.834000       15.9994           0
     41260 TIP3     6317     TIP3     H1       HT       0.417000       1.00800           0
     41261 TIP3     6317     TIP3     H2       HT       0.417000       1.00800           0
     41262 TIP3     6318     TIP3     OH2      OT      -0.834000       15.9994           0
     41263 TIP3     6318     TIP3     H1       HT       0.417000       1.00800           0
     41264 TIP3     6318     TIP3     H2       HT       0.417000       1.00800           0
     41265 TIP3     6319     TIP3     OH2      OT      -0.834000       15.9994           0
     41266 TIP3     6319     TIP3     H1       HT       0.417000       1.00800           0
     41267 TIP3     6319     TIP3     H2       HT       0.417000       1.00800           0
     41268 TIP3     6320     TIP3     OH2      OT      -0.834000       15.9994           0
     41269 TIP3     6320     TIP3     H1       HT       0.417000       1.00800           0
     41270 TIP3     6320     TIP3     H2       HT       0.417000       1.00800           0
     41271 TIP3     6321     TIP3     OH2      OT      -0.834000       15.9994           0
     41272 TIP3     6321     TIP3     H1       HT       0.417000       1.00800           0
     41273 TIP3     6321     TIP3     H2       HT       0.417000       1.00800           0
     41274 TIP3     6322     TIP3     OH2      OT      -0.834000       15.9994           0
     41275 TIP3     6322     TIP3     H1       HT       0.417000       1.00800           0
     41276 TIP3     6322     TIP3     H2       HT       0.417000       1.00800           0
     41277 TIP3     6323     TIP3     OH2      OT      -0.834000       15.9994           0
     41278 TIP3     6323     TIP3     H1       HT       0.417000       1.00800           0
     41279 TIP3     6323     TIP3     H2       HT       0.417000       1.00800           0
     41280 TIP3     6324     TIP3     OH2      OT      -0.834000       15.9994           0
     41281 TIP3     6324     TIP3     H1       HT       0.417000       1.00800           0
     41282 TIP3     6324     TIP3     H2       HT       0.417000       1.00800           0
     41283 TIP3     6325     TIP3     OH2      OT      -0.834000       15.9994           0
     41284 TIP3     6325     TIP3     H1       HT       0.417000       1.00800           0
     41285 TIP3     6325     TIP3     H2       HT       0.417000       1.00800           0
     41286 TIP3     6326     TIP3     OH2      OT      -0.834000       15.9994           0
     41287 TIP3     6326     TIP3     H1       HT       0.417000       1.00800           0
     41288 TIP3     6326     TIP3     H2       HT       0.417000       1.00800           0
     41289 TIP3     6327     TIP3     OH2      OT      -0.834000       15.9994           0
     41290 TIP3     6327     TIP3     H1       HT       0.417000       1.00800           0
     41291 TIP3     6327     TIP3     H2       HT       0.417000       1.00800           0
     41292 TIP3     6328     TIP3     OH2      OT      -0.834000       15.9994           0
     41293 TIP3     6328     TIP3     H1       HT       0.417000       1.00800           0
     41294 TIP3     6328     TIP3     H2       HT       0.417000       1.00800           0
     41295 TIP3     6329     TIP3     OH2      OT      -0.834000       15.9994           0
     41296 TIP3     6329     TIP3     H1       HT       0.417000       1.00800           0
     41297 TIP3     6329     TIP3     H2       HT       0.417000       1.00800           0
     41298 TIP3     6330     TIP3     OH2      OT      -0.834000       15.9994           0
     41299 TIP3     6330     TIP3     H1       HT       0.417000       1.00800           0
     41300 TIP3     6330     TIP3     H2       HT       0.417000       1.00800           0
     41301 TIP3     6331     TIP3     OH2      OT      -0.834000       15.9994           0
     41302 TIP3     6331     TIP3     H1       HT       0.417000       1.00800           0
     41303 TIP3     6331     TIP3     H2       HT       0.417000       1.00800           0
     41304 TIP3     6332     TIP3     OH2      OT      -0.834000       15.9994           0
     41305 TIP3     6332     TIP3     H1       HT       0.417000       1.00800           0
     41306 TIP3     6332     TIP3     H2       HT       0.417000       1.00800           0
     41307 TIP3     6333     TIP3     OH2      OT      -0.834000       15.9994           0
     41308 TIP3     6333     TIP3     H1       HT       0.417000       1.00800           0
     41309 TIP3     6333     TIP3     H2       HT       0.417000       1.00800           0
     41310 TIP3     6334     TIP3     OH2      OT      -0.834000       15.9994           0
     41311 TIP3     6334     TIP3     H1       HT       0.417000       1.00800           0
     41312 TIP3     6334     TIP3     H2       HT       0.417000       1.00800           0
     41313 TIP3     6335     TIP3     OH2      OT      -0.834000       15.9994           0
     41314 TIP3     6335     TIP3     H1       HT       0.417000       1.00800           0
     41315 TIP3     6335     TIP3     H2       HT       0.417000       1.00800           0
     41316 TIP3     6336     TIP3     OH2      OT      -0.834000       15.9994           0
     41317 TIP3     6336     TIP3     H1       HT       0.417000       1.00800           0
     41318 TIP3     6336     TIP3     H2       HT       0.417000       1.00800           0
     41319 TIP3     6337     TIP3     OH2      OT      -0.834000       15.9994           0
     41320 TIP3     6337     TIP3     H1       HT       0.417000       1.00800           0
     41321 TIP3     6337     TIP3     H2       HT       0.417000       1.00800           0
     41322 TIP3     6338     TIP3     OH2      OT      -0.834000       15.9994           0
     41323 TIP3     6338     TIP3     H1       HT       0.417000       1.00800           0
     41324 TIP3     6338     TIP3     H2       HT       0.417000       1.00800           0
     41325 TIP3     6339     TIP3     OH2      OT      -0.834000       15.9994           0
     41326 TIP3     6339     TIP3     H1       HT       0.417000       1.00800           0
     41327 TIP3     6339     TIP3     H2       HT       0.417000       1.00800           0
     41328 TIP3     6340     TIP3     OH2      OT      -0.834000       15.9994           0
     41329 TIP3     6340     TIP3     H1       HT       0.417000       1.00800           0
     41330 TIP3     6340     TIP3     H2       HT       0.417000       1.00800           0
     41331 TIP3     6341     TIP3     OH2      OT      -0.834000       15.9994           0
     41332 TIP3     6341     TIP3     H1       HT       0.417000       1.00800           0
     41333 TIP3     6341     TIP3     H2       HT       0.417000       1.00800           0
     41334 TIP3     6342     TIP3     OH2      OT      -0.834000       15.9994           0
     41335 TIP3     6342     TIP3     H1       HT       0.417000       1.00800           0
     41336 TIP3     6342     TIP3     H2       HT       0.417000       1.00800           0
     41337 TIP3     6343     TIP3     OH2      OT      -0.834000       15.9994           0
     41338 TIP3     6343     TIP3     H1       HT       0.417000       1.00800           0
     41339 TIP3     6343     TIP3     H2       HT       0.417000       1.00800           0
     41340 TIP3     6344     TIP3     OH2      OT      -0.834000       15.9994           0
     41341 TIP3     6344     TIP3     H1       HT       0.417000       1.00800           0
     41342 TIP3     6344     TIP3     H2       HT       0.417000       1.00800           0
     41343 TIP3     6345     TIP3     OH2      OT      -0.834000       15.9994           0
     41344 TIP3     6345     TIP3     H1       HT       0.417000       1.00800           0
     41345 TIP3     6345     TIP3     H2       HT       0.417000       1.00800           0
     41346 TIP3     6346     TIP3     OH2      OT      -0.834000       15.9994           0
     41347 TIP3     6346     TIP3     H1       HT       0.417000       1.00800           0
     41348 TIP3     6346     TIP3     H2       HT       0.417000       1.00800           0
     41349 TIP3     6347     TIP3     OH2      OT      -0.834000       15.9994           0
     41350 TIP3     6347     TIP3     H1       HT       0.417000       1.00800           0
     41351 TIP3     6347     TIP3     H2       HT       0.417000       1.00800           0
     41352 TIP3     6348     TIP3     OH2      OT      -0.834000       15.9994           0
     41353 TIP3     6348     TIP3     H1       HT       0.417000       1.00800           0
     41354 TIP3     6348     TIP3     H2       HT       0.417000       1.00800           0
     41355 TIP3     6349     TIP3     OH2      OT      -0.834000       15.9994           0
     41356 TIP3     6349     TIP3     H1       HT       0.417000       1.00800           0
     41357 TIP3     6349     TIP3     H2       HT       0.417000       1.00800           0
     41358 TIP3     6350     TIP3     OH2      OT      -0.834000       15.9994           0
     41359 TIP3     6350     TIP3     H1       HT       0.417000       1.00800           0
     41360 TIP3     6350     TIP3     H2       HT       0.417000       1.00800           0
     41361 TIP3     6351     TIP3     OH2      OT      -0.834000       15.9994           0
     41362 TIP3     6351     TIP3     H1       HT       0.417000       1.00800           0
     41363 TIP3     6351     TIP3     H2       HT       0.417000       1.00800           0
     41364 TIP3     6352     TIP3     OH2      OT      -0.834000       15.9994           0
     41365 TIP3     6352     TIP3     H1       HT       0.417000       1.00800           0
     41366 TIP3     6352     TIP3     H2       HT       0.417000       1.00800           0
     41367 TIP3     6353     TIP3     OH2      OT      -0.834000       15.9994           0
     41368 TIP3     6353     TIP3     H1       HT       0.417000       1.00800           0
     41369 TIP3     6353     TIP3     H2       HT       0.417000       1.00800           0
     41370 TIP3     6354     TIP3     OH2      OT      -0.834000       15.9994           0
     41371 TIP3     6354     TIP3     H1       HT       0.417000       1.00800           0
     41372 TIP3     6354     TIP3     H2       HT       0.417000       1.00800           0
     41373 TIP3     6355     TIP3     OH2      OT      -0.834000       15.9994           0
     41374 TIP3     6355     TIP3     H1       HT       0.417000       1.00800           0
     41375 TIP3     6355     TIP3     H2       HT       0.417000       1.00800           0
     41376 TIP3     6356     TIP3     OH2      OT      -0.834000       15.9994           0
     41377 TIP3     6356     TIP3     H1       HT       0.417000       1.00800           0
     41378 TIP3     6356     TIP3     H2       HT       0.417000       1.00800           0
     41379 TIP3     6357     TIP3     OH2      OT      -0.834000       15.9994           0
     41380 TIP3     6357     TIP3     H1       HT       0.417000       1.00800           0
     41381 TIP3     6357     TIP3     H2       HT       0.417000       1.00800           0
     41382 TIP3     6358     TIP3     OH2      OT      -0.834000       15.9994           0
     41383 TIP3     6358     TIP3     H1       HT       0.417000       1.00800           0
     41384 TIP3     6358     TIP3     H2       HT       0.417000       1.00800           0
     41385 TIP3     6359     TIP3     OH2      OT      -0.834000       15.9994           0
     41386 TIP3     6359     TIP3     H1       HT       0.417000       1.00800           0
     41387 TIP3     6359     TIP3     H2       HT       0.417000       1.00800           0
     41388 TIP3     6360     TIP3     OH2      OT      -0.834000       15.9994           0
     41389 TIP3     6360     TIP3     H1       HT       0.417000       1.00800           0
     41390 TIP3     6360     TIP3     H2       HT       0.417000       1.00800           0
     41391 TIP3     6361     TIP3     OH2      OT      -0.834000       15.9994           0
     41392 TIP3     6361     TIP3     H1       HT       0.417000       1.00800           0
     41393 TIP3     6361     TIP3     H2       HT       0.417000       1.00800           0
     41394 TIP3     6362     TIP3     OH2      OT      -0.834000       15.9994           0
     41395 TIP3     6362     TIP3     H1       HT       0.417000       1.00800           0
     41396 TIP3     6362     TIP3     H2       HT       0.417000       1.00800           0
     41397 TIP3     6363     TIP3     OH2      OT      -0.834000       15.9994           0
     41398 TIP3     6363     TIP3     H1       HT       0.417000       1.00800           0
     41399 TIP3     6363     TIP3     H2       HT       0.417000       1.00800           0
     41400 TIP3     6364     TIP3     OH2      OT      -0.834000       15.9994           0
     41401 TIP3     6364     TIP3     H1       HT       0.417000       1.00800           0
     41402 TIP3     6364     TIP3     H2       HT       0.417000       1.00800           0
     41403 TIP3     6365     TIP3     OH2      OT      -0.834000       15.9994           0
     41404 TIP3     6365     TIP3     H1       HT       0.417000       1.00800           0
     41405 TIP3     6365     TIP3     H2       HT       0.417000       1.00800           0
     41406 TIP3     6366     TIP3     OH2      OT      -0.834000       15.9994           0
     41407 TIP3     6366     TIP3     H1       HT       0.417000       1.00800           0
     41408 TIP3     6366     TIP3     H2       HT       0.417000       1.00800           0
     41409 TIP3     6367     TIP3     OH2      OT      -0.834000       15.9994           0
     41410 TIP3     6367     TIP3     H1       HT       0.417000       1.00800           0
     41411 TIP3     6367     TIP3     H2       HT       0.417000       1.00800           0
     41412 TIP3     6368     TIP3     OH2      OT      -0.834000       15.9994           0
     41413 TIP3     6368     TIP3     H1       HT       0.417000       1.00800           0
     41414 TIP3     6368     TIP3     H2       HT       0.417000       1.00800           0
     41415 TIP3     6369     TIP3     OH2      OT      -0.834000       15.9994           0
     41416 TIP3     6369     TIP3     H1       HT       0.417000       1.00800           0
     41417 TIP3     6369     TIP3     H2       HT       0.417000       1.00800           0
     41418 TIP3     6370     TIP3     OH2      OT      -0.834000       15.9994           0
     41419 TIP3     6370     TIP3     H1       HT       0.417000       1.00800           0
     41420 TIP3     6370     TIP3     H2       HT       0.417000       1.00800           0
     41421 TIP3     6371     TIP3     OH2      OT      -0.834000       15.9994           0
     41422 TIP3     6371     TIP3     H1       HT       0.417000       1.00800           0
     41423 TIP3     6371     TIP3     H2       HT       0.417000       1.00800           0
     41424 TIP3     6372     TIP3     OH2      OT      -0.834000       15.9994           0
     41425 TIP3     6372     TIP3     H1       HT       0.417000       1.00800           0
     41426 TIP3     6372     TIP3     H2       HT       0.417000       1.00800           0
     41427 TIP3     6373     TIP3     OH2      OT      -0.834000       15.9994           0
     41428 TIP3     6373     TIP3     H1       HT       0.417000       1.00800           0
     41429 TIP3     6373     TIP3     H2       HT       0.417000       1.00800           0
     41430 TIP3     6374     TIP3     OH2      OT      -0.834000       15.9994           0
     41431 TIP3     6374     TIP3     H1       HT       0.417000       1.00800           0
     41432 TIP3     6374     TIP3     H2       HT       0.417000       1.00800           0
     41433 TIP3     6375     TIP3     OH2      OT      -0.834000       15.9994           0
     41434 TIP3     6375     TIP3     H1       HT       0.417000       1.00800           0
     41435 TIP3     6375     TIP3     H2       HT       0.417000       1.00800           0
     41436 TIP3     6376     TIP3     OH2      OT      -0.834000       15.9994           0
     41437 TIP3     6376     TIP3     H1       HT       0.417000       1.00800           0
     41438 TIP3     6376     TIP3     H2       HT       0.417000       1.00800           0
     41439 TIP3     6377     TIP3     OH2      OT      -0.834000       15.9994           0
     41440 TIP3     6377     TIP3     H1       HT       0.417000       1.00800           0
     41441 TIP3     6377     TIP3     H2       HT       0.417000       1.00800           0
     41442 TIP3     6378     TIP3     OH2      OT      -0.834000       15.9994           0
     41443 TIP3     6378     TIP3     H1       HT       0.417000       1.00800           0
     41444 TIP3     6378     TIP3     H2       HT       0.417000       1.00800           0
     41445 TIP3     6379     TIP3     OH2      OT      -0.834000       15.9994           0
     41446 TIP3     6379     TIP3     H1       HT       0.417000       1.00800           0
     41447 TIP3     6379     TIP3     H2       HT       0.417000       1.00800           0
     41448 TIP3     6380     TIP3     OH2      OT      -0.834000       15.9994           0
     41449 TIP3     6380     TIP3     H1       HT       0.417000       1.00800           0
     41450 TIP3     6380     TIP3     H2       HT       0.417000       1.00800           0
     41451 TIP3     6381     TIP3     OH2      OT      -0.834000       15.9994           0
     41452 TIP3     6381     TIP3     H1       HT       0.417000       1.00800           0
     41453 TIP3     6381     TIP3     H2       HT       0.417000       1.00800           0
     41454 TIP3     6382     TIP3     OH2      OT      -0.834000       15.9994           0
     41455 TIP3     6382     TIP3     H1       HT       0.417000       1.00800           0
     41456 TIP3     6382     TIP3     H2       HT       0.417000       1.00800           0
     41457 TIP3     6383     TIP3     OH2      OT      -0.834000       15.9994           0
     41458 TIP3     6383     TIP3     H1       HT       0.417000       1.00800           0
     41459 TIP3     6383     TIP3     H2       HT       0.417000       1.00800           0
     41460 TIP3     6384     TIP3     OH2      OT      -0.834000       15.9994           0
     41461 TIP3     6384     TIP3     H1       HT       0.417000       1.00800           0
     41462 TIP3     6384     TIP3     H2       HT       0.417000       1.00800           0
     41463 TIP3     6385     TIP3     OH2      OT      -0.834000       15.9994           0
     41464 TIP3     6385     TIP3     H1       HT       0.417000       1.00800           0
     41465 TIP3     6385     TIP3     H2       HT       0.417000       1.00800           0
     41466 TIP3     6386     TIP3     OH2      OT      -0.834000       15.9994           0
     41467 TIP3     6386     TIP3     H1       HT       0.417000       1.00800           0
     41468 TIP3     6386     TIP3     H2       HT       0.417000       1.00800           0
     41469 TIP3     6387     TIP3     OH2      OT      -0.834000       15.9994           0
     41470 TIP3     6387     TIP3     H1       HT       0.417000       1.00800           0
     41471 TIP3     6387     TIP3     H2       HT       0.417000       1.00800           0
     41472 TIP3     6388     TIP3     OH2      OT      -0.834000       15.9994           0
     41473 TIP3     6388     TIP3     H1       HT       0.417000       1.00800           0
     41474 TIP3     6388     TIP3     H2       HT       0.417000       1.00800           0
     41475 TIP3     6389     TIP3     OH2      OT      -0.834000       15.9994           0
     41476 TIP3     6389     TIP3     H1       HT       0.417000       1.00800           0
     41477 TIP3     6389     TIP3     H2       HT       0.417000       1.00800           0
     41478 TIP3     6390     TIP3     OH2      OT      -0.834000       15.9994           0
     41479 TIP3     6390     TIP3     H1       HT       0.417000       1.00800           0
     41480 TIP3     6390     TIP3     H2       HT       0.417000       1.00800           0
     41481 TIP3     6391     TIP3     OH2      OT      -0.834000       15.9994           0
     41482 TIP3     6391     TIP3     H1       HT       0.417000       1.00800           0
     41483 TIP3     6391     TIP3     H2       HT       0.417000       1.00800           0
     41484 TIP3     6392     TIP3     OH2      OT      -0.834000       15.9994           0
     41485 TIP3     6392     TIP3     H1       HT       0.417000       1.00800           0
     41486 TIP3     6392     TIP3     H2       HT       0.417000       1.00800           0
     41487 TIP3     6393     TIP3     OH2      OT      -0.834000       15.9994           0
     41488 TIP3     6393     TIP3     H1       HT       0.417000       1.00800           0
     41489 TIP3     6393     TIP3     H2       HT       0.417000       1.00800           0
     41490 TIP3     6394     TIP3     OH2      OT      -0.834000       15.9994           0
     41491 TIP3     6394     TIP3     H1       HT       0.417000       1.00800           0
     41492 TIP3     6394     TIP3     H2       HT       0.417000       1.00800           0
     41493 TIP3     6395     TIP3     OH2      OT      -0.834000       15.9994           0
     41494 TIP3     6395     TIP3     H1       HT       0.417000       1.00800           0
     41495 TIP3     6395     TIP3     H2       HT       0.417000       1.00800           0
     41496 TIP3     6396     TIP3     OH2      OT      -0.834000       15.9994           0
     41497 TIP3     6396     TIP3     H1       HT       0.417000       1.00800           0
     41498 TIP3     6396     TIP3     H2       HT       0.417000       1.00800           0
     41499 TIP3     6397     TIP3     OH2      OT      -0.834000       15.9994           0
     41500 TIP3     6397     TIP3     H1       HT       0.417000       1.00800           0
     41501 TIP3     6397     TIP3     H2       HT       0.417000       1.00800           0
     41502 TIP3     6398     TIP3     OH2      OT      -0.834000       15.9994           0
     41503 TIP3     6398     TIP3     H1       HT       0.417000       1.00800           0
     41504 TIP3     6398     TIP3     H2       HT       0.417000       1.00800           0
     41505 TIP3     6399     TIP3     OH2      OT      -0.834000       15.9994           0
     41506 TIP3     6399     TIP3     H1       HT       0.417000       1.00800           0
     41507 TIP3     6399     TIP3     H2       HT       0.417000       1.00800           0
     41508 TIP3     6400     TIP3     OH2      OT      -0.834000       15.9994           0
     41509 TIP3     6400     TIP3     H1       HT       0.417000       1.00800           0
     41510 TIP3     6400     TIP3     H2       HT       0.417000       1.00800           0
     41511 TIP3     6401     TIP3     OH2      OT      -0.834000       15.9994           0
     41512 TIP3     6401     TIP3     H1       HT       0.417000       1.00800           0
     41513 TIP3     6401     TIP3     H2       HT       0.417000       1.00800           0
     41514 TIP3     6402     TIP3     OH2      OT      -0.834000       15.9994           0
     41515 TIP3     6402     TIP3     H1       HT       0.417000       1.00800           0
     41516 TIP3     6402     TIP3     H2       HT       0.417000       1.00800           0
     41517 TIP3     6403     TIP3     OH2      OT      -0.834000       15.9994           0
     41518 TIP3     6403     TIP3     H1       HT       0.417000       1.00800           0
     41519 TIP3     6403     TIP3     H2       HT       0.417000       1.00800           0
     41520 TIP3     6404     TIP3     OH2      OT      -0.834000       15.9994           0
     41521 TIP3     6404     TIP3     H1       HT       0.417000       1.00800           0
     41522 TIP3     6404     TIP3     H2       HT       0.417000       1.00800           0
     41523 TIP3     6405     TIP3     OH2      OT      -0.834000       15.9994           0
     41524 TIP3     6405     TIP3     H1       HT       0.417000       1.00800           0
     41525 TIP3     6405     TIP3     H2       HT       0.417000       1.00800           0
     41526 TIP3     6406     TIP3     OH2      OT      -0.834000       15.9994           0
     41527 TIP3     6406     TIP3     H1       HT       0.417000       1.00800           0
     41528 TIP3     6406     TIP3     H2       HT       0.417000       1.00800           0
     41529 TIP3     6407     TIP3     OH2      OT      -0.834000       15.9994           0
     41530 TIP3     6407     TIP3     H1       HT       0.417000       1.00800           0
     41531 TIP3     6407     TIP3     H2       HT       0.417000       1.00800           0
     41532 TIP3     6408     TIP3     OH2      OT      -0.834000       15.9994           0
     41533 TIP3     6408     TIP3     H1       HT       0.417000       1.00800           0
     41534 TIP3     6408     TIP3     H2       HT       0.417000       1.00800           0
     41535 TIP3     6409     TIP3     OH2      OT      -0.834000       15.9994           0
     41536 TIP3     6409     TIP3     H1       HT       0.417000       1.00800           0
     41537 TIP3     6409     TIP3     H2       HT       0.417000       1.00800           0
     41538 TIP3     6410     TIP3     OH2      OT      -0.834000       15.9994           0
     41539 TIP3     6410     TIP3     H1       HT       0.417000       1.00800           0
     41540 TIP3     6410     TIP3     H2       HT       0.417000       1.00800           0
     41541 TIP3     6411     TIP3     OH2      OT      -0.834000       15.9994           0
     41542 TIP3     6411     TIP3     H1       HT       0.417000       1.00800           0
     41543 TIP3     6411     TIP3     H2       HT       0.417000       1.00800           0
     41544 TIP3     6412     TIP3     OH2      OT      -0.834000       15.9994           0
     41545 TIP3     6412     TIP3     H1       HT       0.417000       1.00800           0
     41546 TIP3     6412     TIP3     H2       HT       0.417000       1.00800           0
     41547 TIP3     6413     TIP3     OH2      OT      -0.834000       15.9994           0
     41548 TIP3     6413     TIP3     H1       HT       0.417000       1.00800           0
     41549 TIP3     6413     TIP3     H2       HT       0.417000       1.00800           0
     41550 TIP3     6414     TIP3     OH2      OT      -0.834000       15.9994           0
     41551 TIP3     6414     TIP3     H1       HT       0.417000       1.00800           0
     41552 TIP3     6414     TIP3     H2       HT       0.417000       1.00800           0
     41553 TIP3     6415     TIP3     OH2      OT      -0.834000       15.9994           0
     41554 TIP3     6415     TIP3     H1       HT       0.417000       1.00800           0
     41555 TIP3     6415     TIP3     H2       HT       0.417000       1.00800           0
     41556 TIP3     6416     TIP3     OH2      OT      -0.834000       15.9994           0
     41557 TIP3     6416     TIP3     H1       HT       0.417000       1.00800           0
     41558 TIP3     6416     TIP3     H2       HT       0.417000       1.00800           0
     41559 TIP3     6417     TIP3     OH2      OT      -0.834000       15.9994           0
     41560 TIP3     6417     TIP3     H1       HT       0.417000       1.00800           0
     41561 TIP3     6417     TIP3     H2       HT       0.417000       1.00800           0
     41562 TIP3     6418     TIP3     OH2      OT      -0.834000       15.9994           0
     41563 TIP3     6418     TIP3     H1       HT       0.417000       1.00800           0
     41564 TIP3     6418     TIP3     H2       HT       0.417000       1.00800           0
     41565 TIP3     6419     TIP3     OH2      OT      -0.834000       15.9994           0
     41566 TIP3     6419     TIP3     H1       HT       0.417000       1.00800           0
     41567 TIP3     6419     TIP3     H2       HT       0.417000       1.00800           0
     41568 TIP3     6420     TIP3     OH2      OT      -0.834000       15.9994           0
     41569 TIP3     6420     TIP3     H1       HT       0.417000       1.00800           0
     41570 TIP3     6420     TIP3     H2       HT       0.417000       1.00800           0
     41571 TIP3     6421     TIP3     OH2      OT      -0.834000       15.9994           0
     41572 TIP3     6421     TIP3     H1       HT       0.417000       1.00800           0
     41573 TIP3     6421     TIP3     H2       HT       0.417000       1.00800           0
     41574 TIP3     6422     TIP3     OH2      OT      -0.834000       15.9994           0
     41575 TIP3     6422     TIP3     H1       HT       0.417000       1.00800           0
     41576 TIP3     6422     TIP3     H2       HT       0.417000       1.00800           0
     41577 TIP3     6423     TIP3     OH2      OT      -0.834000       15.9994           0
     41578 TIP3     6423     TIP3     H1       HT       0.417000       1.00800           0
     41579 TIP3     6423     TIP3     H2       HT       0.417000       1.00800           0
     41580 TIP3     6424     TIP3     OH2      OT      -0.834000       15.9994           0
     41581 TIP3     6424     TIP3     H1       HT       0.417000       1.00800           0
     41582 TIP3     6424     TIP3     H2       HT       0.417000       1.00800           0
     41583 TIP3     6425     TIP3     OH2      OT      -0.834000       15.9994           0
     41584 TIP3     6425     TIP3     H1       HT       0.417000       1.00800           0
     41585 TIP3     6425     TIP3     H2       HT       0.417000       1.00800           0
     41586 TIP3     6426     TIP3     OH2      OT      -0.834000       15.9994           0
     41587 TIP3     6426     TIP3     H1       HT       0.417000       1.00800           0
     41588 TIP3     6426     TIP3     H2       HT       0.417000       1.00800           0
     41589 TIP3     6427     TIP3     OH2      OT      -0.834000       15.9994           0
     41590 TIP3     6427     TIP3     H1       HT       0.417000       1.00800           0
     41591 TIP3     6427     TIP3     H2       HT       0.417000       1.00800           0
     41592 TIP3     6428     TIP3     OH2      OT      -0.834000       15.9994           0
     41593 TIP3     6428     TIP3     H1       HT       0.417000       1.00800           0
     41594 TIP3     6428     TIP3     H2       HT       0.417000       1.00800           0
     41595 TIP3     6429     TIP3     OH2      OT      -0.834000       15.9994           0
     41596 TIP3     6429     TIP3     H1       HT       0.417000       1.00800           0
     41597 TIP3     6429     TIP3     H2       HT       0.417000       1.00800           0
     41598 TIP3     6430     TIP3     OH2      OT      -0.834000       15.9994           0
     41599 TIP3     6430     TIP3     H1       HT       0.417000       1.00800           0
     41600 TIP3     6430     TIP3     H2       HT       0.417000       1.00800           0
     41601 TIP3     6431     TIP3     OH2      OT      -0.834000       15.9994           0
     41602 TIP3     6431     TIP3     H1       HT       0.417000       1.00800           0
     41603 TIP3     6431     TIP3     H2       HT       0.417000       1.00800           0
     41604 TIP3     6432     TIP3     OH2      OT      -0.834000       15.9994           0
     41605 TIP3     6432     TIP3     H1       HT       0.417000       1.00800           0
     41606 TIP3     6432     TIP3     H2       HT       0.417000       1.00800           0
     41607 TIP3     6433     TIP3     OH2      OT      -0.834000       15.9994           0
     41608 TIP3     6433     TIP3     H1       HT       0.417000       1.00800           0
     41609 TIP3     6433     TIP3     H2       HT       0.417000       1.00800           0
     41610 TIP3     6434     TIP3     OH2      OT      -0.834000       15.9994           0
     41611 TIP3     6434     TIP3     H1       HT       0.417000       1.00800           0
     41612 TIP3     6434     TIP3     H2       HT       0.417000       1.00800           0
     41613 TIP3     6435     TIP3     OH2      OT      -0.834000       15.9994           0
     41614 TIP3     6435     TIP3     H1       HT       0.417000       1.00800           0
     41615 TIP3     6435     TIP3     H2       HT       0.417000       1.00800           0
     41616 TIP3     6436     TIP3     OH2      OT      -0.834000       15.9994           0
     41617 TIP3     6436     TIP3     H1       HT       0.417000       1.00800           0
     41618 TIP3     6436     TIP3     H2       HT       0.417000       1.00800           0
     41619 TIP3     6437     TIP3     OH2      OT      -0.834000       15.9994           0
     41620 TIP3     6437     TIP3     H1       HT       0.417000       1.00800           0
     41621 TIP3     6437     TIP3     H2       HT       0.417000       1.00800           0
     41622 TIP3     6438     TIP3     OH2      OT      -0.834000       15.9994           0
     41623 TIP3     6438     TIP3     H1       HT       0.417000       1.00800           0
     41624 TIP3     6438     TIP3     H2       HT       0.417000       1.00800           0
     41625 TIP3     6439     TIP3     OH2      OT      -0.834000       15.9994           0
     41626 TIP3     6439     TIP3     H1       HT       0.417000       1.00800           0
     41627 TIP3     6439     TIP3     H2       HT       0.417000       1.00800           0
     41628 TIP3     6440     TIP3     OH2      OT      -0.834000       15.9994           0
     41629 TIP3     6440     TIP3     H1       HT       0.417000       1.00800           0
     41630 TIP3     6440     TIP3     H2       HT       0.417000       1.00800           0
     41631 TIP3     6441     TIP3     OH2      OT      -0.834000       15.9994           0
     41632 TIP3     6441     TIP3     H1       HT       0.417000       1.00800           0
     41633 TIP3     6441     TIP3     H2       HT       0.417000       1.00800           0
     41634 TIP3     6442     TIP3     OH2      OT      -0.834000       15.9994           0
     41635 TIP3     6442     TIP3     H1       HT       0.417000       1.00800           0
     41636 TIP3     6442     TIP3     H2       HT       0.417000       1.00800           0
     41637 TIP3     6443     TIP3     OH2      OT      -0.834000       15.9994           0
     41638 TIP3     6443     TIP3     H1       HT       0.417000       1.00800           0
     41639 TIP3     6443     TIP3     H2       HT       0.417000       1.00800           0
     41640 TIP3     6444     TIP3     OH2      OT      -0.834000       15.9994           0
     41641 TIP3     6444     TIP3     H1       HT       0.417000       1.00800           0
     41642 TIP3     6444     TIP3     H2       HT       0.417000       1.00800           0
     41643 TIP3     6445     TIP3     OH2      OT      -0.834000       15.9994           0
     41644 TIP3     6445     TIP3     H1       HT       0.417000       1.00800           0
     41645 TIP3     6445     TIP3     H2       HT       0.417000       1.00800           0
     41646 TIP3     6446     TIP3     OH2      OT      -0.834000       15.9994           0
     41647 TIP3     6446     TIP3     H1       HT       0.417000       1.00800           0
     41648 TIP3     6446     TIP3     H2       HT       0.417000       1.00800           0
     41649 TIP3     6447     TIP3     OH2      OT      -0.834000       15.9994           0
     41650 TIP3     6447     TIP3     H1       HT       0.417000       1.00800           0
     41651 TIP3     6447     TIP3     H2       HT       0.417000       1.00800           0
     41652 TIP3     6448     TIP3     OH2      OT      -0.834000       15.9994           0
     41653 TIP3     6448     TIP3     H1       HT       0.417000       1.00800           0
     41654 TIP3     6448     TIP3     H2       HT       0.417000       1.00800           0
     41655 TIP3     6449     TIP3     OH2      OT      -0.834000       15.9994           0
     41656 TIP3     6449     TIP3     H1       HT       0.417000       1.00800           0
     41657 TIP3     6449     TIP3     H2       HT       0.417000       1.00800           0
     41658 TIP3     6450     TIP3     OH2      OT      -0.834000       15.9994           0
     41659 TIP3     6450     TIP3     H1       HT       0.417000       1.00800           0
     41660 TIP3     6450     TIP3     H2       HT       0.417000       1.00800           0
     41661 TIP3     6451     TIP3     OH2      OT      -0.834000       15.9994           0
     41662 TIP3     6451     TIP3     H1       HT       0.417000       1.00800           0
     41663 TIP3     6451     TIP3     H2       HT       0.417000       1.00800           0
     41664 TIP3     6452     TIP3     OH2      OT      -0.834000       15.9994           0
     41665 TIP3     6452     TIP3     H1       HT       0.417000       1.00800           0
     41666 TIP3     6452     TIP3     H2       HT       0.417000       1.00800           0
     41667 TIP3     6453     TIP3     OH2      OT      -0.834000       15.9994           0
     41668 TIP3     6453     TIP3     H1       HT       0.417000       1.00800           0
     41669 TIP3     6453     TIP3     H2       HT       0.417000       1.00800           0
     41670 TIP3     6454     TIP3     OH2      OT      -0.834000       15.9994           0
     41671 TIP3     6454     TIP3     H1       HT       0.417000       1.00800           0
     41672 TIP3     6454     TIP3     H2       HT       0.417000       1.00800           0
     41673 TIP3     6455     TIP3     OH2      OT      -0.834000       15.9994           0
     41674 TIP3     6455     TIP3     H1       HT       0.417000       1.00800           0
     41675 TIP3     6455     TIP3     H2       HT       0.417000       1.00800           0
     41676 TIP3     6456     TIP3     OH2      OT      -0.834000       15.9994           0
     41677 TIP3     6456     TIP3     H1       HT       0.417000       1.00800           0
     41678 TIP3     6456     TIP3     H2       HT       0.417000       1.00800           0
     41679 TIP3     6457     TIP3     OH2      OT      -0.834000       15.9994           0
     41680 TIP3     6457     TIP3     H1       HT       0.417000       1.00800           0
     41681 TIP3     6457     TIP3     H2       HT       0.417000       1.00800           0
     41682 TIP3     6458     TIP3     OH2      OT      -0.834000       15.9994           0
     41683 TIP3     6458     TIP3     H1       HT       0.417000       1.00800           0
     41684 TIP3     6458     TIP3     H2       HT       0.417000       1.00800           0
     41685 TIP3     6459     TIP3     OH2      OT      -0.834000       15.9994           0
     41686 TIP3     6459     TIP3     H1       HT       0.417000       1.00800           0
     41687 TIP3     6459     TIP3     H2       HT       0.417000       1.00800           0
     41688 TIP3     6460     TIP3     OH2      OT      -0.834000       15.9994           0
     41689 TIP3     6460     TIP3     H1       HT       0.417000       1.00800           0
     41690 TIP3     6460     TIP3     H2       HT       0.417000       1.00800           0
     41691 TIP3     6461     TIP3     OH2      OT      -0.834000       15.9994           0
     41692 TIP3     6461     TIP3     H1       HT       0.417000       1.00800           0
     41693 TIP3     6461     TIP3     H2       HT       0.417000       1.00800           0
     41694 TIP3     6462     TIP3     OH2      OT      -0.834000       15.9994           0
     41695 TIP3     6462     TIP3     H1       HT       0.417000       1.00800           0
     41696 TIP3     6462     TIP3     H2       HT       0.417000       1.00800           0
     41697 TIP3     6463     TIP3     OH2      OT      -0.834000       15.9994           0
     41698 TIP3     6463     TIP3     H1       HT       0.417000       1.00800           0
     41699 TIP3     6463     TIP3     H2       HT       0.417000       1.00800           0
     41700 TIP3     6464     TIP3     OH2      OT      -0.834000       15.9994           0
     41701 TIP3     6464     TIP3     H1       HT       0.417000       1.00800           0
     41702 TIP3     6464     TIP3     H2       HT       0.417000       1.00800           0
     41703 TIP3     6465     TIP3     OH2      OT      -0.834000       15.9994           0
     41704 TIP3     6465     TIP3     H1       HT       0.417000       1.00800           0
     41705 TIP3     6465     TIP3     H2       HT       0.417000       1.00800           0
     41706 TIP3     6466     TIP3     OH2      OT      -0.834000       15.9994           0
     41707 TIP3     6466     TIP3     H1       HT       0.417000       1.00800           0
     41708 TIP3     6466     TIP3     H2       HT       0.417000       1.00800           0
     41709 TIP3     6467     TIP3     OH2      OT      -0.834000       15.9994           0
     41710 TIP3     6467     TIP3     H1       HT       0.417000       1.00800           0
     41711 TIP3     6467     TIP3     H2       HT       0.417000       1.00800           0
     41712 TIP3     6468     TIP3     OH2      OT      -0.834000       15.9994           0
     41713 TIP3     6468     TIP3     H1       HT       0.417000       1.00800           0
     41714 TIP3     6468     TIP3     H2       HT       0.417000       1.00800           0
     41715 TIP3     6469     TIP3     OH2      OT      -0.834000       15.9994           0
     41716 TIP3     6469     TIP3     H1       HT       0.417000       1.00800           0
     41717 TIP3     6469     TIP3     H2       HT       0.417000       1.00800           0
     41718 TIP3     6470     TIP3     OH2      OT      -0.834000       15.9994           0
     41719 TIP3     6470     TIP3     H1       HT       0.417000       1.00800           0
     41720 TIP3     6470     TIP3     H2       HT       0.417000       1.00800           0
     41721 TIP3     6471     TIP3     OH2      OT      -0.834000       15.9994           0
     41722 TIP3     6471     TIP3     H1       HT       0.417000       1.00800           0
     41723 TIP3     6471     TIP3     H2       HT       0.417000       1.00800           0
     41724 TIP3     6472     TIP3     OH2      OT      -0.834000       15.9994           0
     41725 TIP3     6472     TIP3     H1       HT       0.417000       1.00800           0
     41726 TIP3     6472     TIP3     H2       HT       0.417000       1.00800           0
     41727 TIP3     6473     TIP3     OH2      OT      -0.834000       15.9994           0
     41728 TIP3     6473     TIP3     H1       HT       0.417000       1.00800           0
     41729 TIP3     6473     TIP3     H2       HT       0.417000       1.00800           0
     41730 TIP3     6474     TIP3     OH2      OT      -0.834000       15.9994           0
     41731 TIP3     6474     TIP3     H1       HT       0.417000       1.00800           0
     41732 TIP3     6474     TIP3     H2       HT       0.417000       1.00800           0
     41733 TIP3     6475     TIP3     OH2      OT      -0.834000       15.9994           0
     41734 TIP3     6475     TIP3     H1       HT       0.417000       1.00800           0
     41735 TIP3     6475     TIP3     H2       HT       0.417000       1.00800           0
     41736 TIP3     6476     TIP3     OH2      OT      -0.834000       15.9994           0
     41737 TIP3     6476     TIP3     H1       HT       0.417000       1.00800           0
     41738 TIP3     6476     TIP3     H2       HT       0.417000       1.00800           0
     41739 TIP3     6477     TIP3     OH2      OT      -0.834000       15.9994           0
     41740 TIP3     6477     TIP3     H1       HT       0.417000       1.00800           0
     41741 TIP3     6477     TIP3     H2       HT       0.417000       1.00800           0
     41742 TIP3     6478     TIP3     OH2      OT      -0.834000       15.9994           0
     41743 TIP3     6478     TIP3     H1       HT       0.417000       1.00800           0
     41744 TIP3     6478     TIP3     H2       HT       0.417000       1.00800           0
     41745 TIP3     6479     TIP3     OH2      OT      -0.834000       15.9994           0
     41746 TIP3     6479     TIP3     H1       HT       0.417000       1.00800           0
     41747 TIP3     6479     TIP3     H2       HT       0.417000       1.00800           0
     41748 TIP3     6480     TIP3     OH2      OT      -0.834000       15.9994           0
     41749 TIP3     6480     TIP3     H1       HT       0.417000       1.00800           0
     41750 TIP3     6480     TIP3     H2       HT       0.417000       1.00800           0
     41751 TIP3     6481     TIP3     OH2      OT      -0.834000       15.9994           0
     41752 TIP3     6481     TIP3     H1       HT       0.417000       1.00800           0
     41753 TIP3     6481     TIP3     H2       HT       0.417000       1.00800           0
     41754 TIP3     6482     TIP3     OH2      OT      -0.834000       15.9994           0
     41755 TIP3     6482     TIP3     H1       HT       0.417000       1.00800           0
     41756 TIP3     6482     TIP3     H2       HT       0.417000       1.00800           0
     41757 TIP3     6483     TIP3     OH2      OT      -0.834000       15.9994           0
     41758 TIP3     6483     TIP3     H1       HT       0.417000       1.00800           0
     41759 TIP3     6483     TIP3     H2       HT       0.417000       1.00800           0
     41760 TIP3     6484     TIP3     OH2      OT      -0.834000       15.9994           0
     41761 TIP3     6484     TIP3     H1       HT       0.417000       1.00800           0
     41762 TIP3     6484     TIP3     H2       HT       0.417000       1.00800           0
     41763 TIP3     6485     TIP3     OH2      OT      -0.834000       15.9994           0
     41764 TIP3     6485     TIP3     H1       HT       0.417000       1.00800           0
     41765 TIP3     6485     TIP3     H2       HT       0.417000       1.00800           0
     41766 TIP3     6486     TIP3     OH2      OT      -0.834000       15.9994           0
     41767 TIP3     6486     TIP3     H1       HT       0.417000       1.00800           0
     41768 TIP3     6486     TIP3     H2       HT       0.417000       1.00800           0
     41769 TIP3     6487     TIP3     OH2      OT      -0.834000       15.9994           0
     41770 TIP3     6487     TIP3     H1       HT       0.417000       1.00800           0
     41771 TIP3     6487     TIP3     H2       HT       0.417000       1.00800           0
     41772 TIP3     6488     TIP3     OH2      OT      -0.834000       15.9994           0
     41773 TIP3     6488     TIP3     H1       HT       0.417000       1.00800           0
     41774 TIP3     6488     TIP3     H2       HT       0.417000       1.00800           0
     41775 TIP3     6489     TIP3     OH2      OT      -0.834000       15.9994           0
     41776 TIP3     6489     TIP3     H1       HT       0.417000       1.00800           0
     41777 TIP3     6489     TIP3     H2       HT       0.417000       1.00800           0
     41778 TIP3     6490     TIP3     OH2      OT      -0.834000       15.9994           0
     41779 TIP3     6490     TIP3     H1       HT       0.417000       1.00800           0
     41780 TIP3     6490     TIP3     H2       HT       0.417000       1.00800           0
     41781 TIP3     6491     TIP3     OH2      OT      -0.834000       15.9994           0
     41782 TIP3     6491     TIP3     H1       HT       0.417000       1.00800           0
     41783 TIP3     6491     TIP3     H2       HT       0.417000       1.00800           0
     41784 TIP3     6492     TIP3     OH2      OT      -0.834000       15.9994           0
     41785 TIP3     6492     TIP3     H1       HT       0.417000       1.00800           0
     41786 TIP3     6492     TIP3     H2       HT       0.417000       1.00800           0
     41787 TIP3     6493     TIP3     OH2      OT      -0.834000       15.9994           0
     41788 TIP3     6493     TIP3     H1       HT       0.417000       1.00800           0
     41789 TIP3     6493     TIP3     H2       HT       0.417000       1.00800           0
     41790 TIP3     6494     TIP3     OH2      OT      -0.834000       15.9994           0
     41791 TIP3     6494     TIP3     H1       HT       0.417000       1.00800           0
     41792 TIP3     6494     TIP3     H2       HT       0.417000       1.00800           0
     41793 TIP3     6495     TIP3     OH2      OT      -0.834000       15.9994           0
     41794 TIP3     6495     TIP3     H1       HT       0.417000       1.00800           0
     41795 TIP3     6495     TIP3     H2       HT       0.417000       1.00800           0
     41796 TIP3     6496     TIP3     OH2      OT      -0.834000       15.9994           0
     41797 TIP3     6496     TIP3     H1       HT       0.417000       1.00800           0
     41798 TIP3     6496     TIP3     H2       HT       0.417000       1.00800           0
     41799 TIP3     6497     TIP3     OH2      OT      -0.834000       15.9994           0
     41800 TIP3     6497     TIP3     H1       HT       0.417000       1.00800           0
     41801 TIP3     6497     TIP3     H2       HT       0.417000       1.00800           0
     41802 TIP3     6498     TIP3     OH2      OT      -0.834000       15.9994           0
     41803 TIP3     6498     TIP3     H1       HT       0.417000       1.00800           0
     41804 TIP3     6498     TIP3     H2       HT       0.417000       1.00800           0
     41805 TIP3     6499     TIP3     OH2      OT      -0.834000       15.9994           0
     41806 TIP3     6499     TIP3     H1       HT       0.417000       1.00800           0
     41807 TIP3     6499     TIP3     H2       HT       0.417000       1.00800           0
     41808 TIP3     6500     TIP3     OH2      OT      -0.834000       15.9994           0
     41809 TIP3     6500     TIP3     H1       HT       0.417000       1.00800           0
     41810 TIP3     6500     TIP3     H2       HT       0.417000       1.00800           0
     41811 TIP3     6501     TIP3     OH2      OT      -0.834000       15.9994           0
     41812 TIP3     6501     TIP3     H1       HT       0.417000       1.00800           0
     41813 TIP3     6501     TIP3     H2       HT       0.417000       1.00800           0
     41814 TIP3     6502     TIP3     OH2      OT      -0.834000       15.9994           0
     41815 TIP3     6502     TIP3     H1       HT       0.417000       1.00800           0
     41816 TIP3     6502     TIP3     H2       HT       0.417000       1.00800           0
     41817 TIP3     6503     TIP3     OH2      OT      -0.834000       15.9994           0
     41818 TIP3     6503     TIP3     H1       HT       0.417000       1.00800           0
     41819 TIP3     6503     TIP3     H2       HT       0.417000       1.00800           0
     41820 TIP3     6504     TIP3     OH2      OT      -0.834000       15.9994           0
     41821 TIP3     6504     TIP3     H1       HT       0.417000       1.00800           0
     41822 TIP3     6504     TIP3     H2       HT       0.417000       1.00800           0
     41823 TIP3     6505     TIP3     OH2      OT      -0.834000       15.9994           0
     41824 TIP3     6505     TIP3     H1       HT       0.417000       1.00800           0
     41825 TIP3     6505     TIP3     H2       HT       0.417000       1.00800           0
     41826 TIP3     6506     TIP3     OH2      OT      -0.834000       15.9994           0
     41827 TIP3     6506     TIP3     H1       HT       0.417000       1.00800           0
     41828 TIP3     6506     TIP3     H2       HT       0.417000       1.00800           0
     41829 TIP3     6507     TIP3     OH2      OT      -0.834000       15.9994           0
     41830 TIP3     6507     TIP3     H1       HT       0.417000       1.00800           0
     41831 TIP3     6507     TIP3     H2       HT       0.417000       1.00800           0
     41832 TIP3     6508     TIP3     OH2      OT      -0.834000       15.9994           0
     41833 TIP3     6508     TIP3     H1       HT       0.417000       1.00800           0
     41834 TIP3     6508     TIP3     H2       HT       0.417000       1.00800           0
     41835 TIP3     6509     TIP3     OH2      OT      -0.834000       15.9994           0
     41836 TIP3     6509     TIP3     H1       HT       0.417000       1.00800           0
     41837 TIP3     6509     TIP3     H2       HT       0.417000       1.00800           0
     41838 TIP3     6510     TIP3     OH2      OT      -0.834000       15.9994           0
     41839 TIP3     6510     TIP3     H1       HT       0.417000       1.00800           0
     41840 TIP3     6510     TIP3     H2       HT       0.417000       1.00800           0
     41841 TIP3     6511     TIP3     OH2      OT      -0.834000       15.9994           0
     41842 TIP3     6511     TIP3     H1       HT       0.417000       1.00800           0
     41843 TIP3     6511     TIP3     H2       HT       0.417000       1.00800           0
     41844 TIP3     6512     TIP3     OH2      OT      -0.834000       15.9994           0
     41845 TIP3     6512     TIP3     H1       HT       0.417000       1.00800           0
     41846 TIP3     6512     TIP3     H2       HT       0.417000       1.00800           0
     41847 TIP3     6513     TIP3     OH2      OT      -0.834000       15.9994           0
     41848 TIP3     6513     TIP3     H1       HT       0.417000       1.00800           0
     41849 TIP3     6513     TIP3     H2       HT       0.417000       1.00800           0
     41850 TIP3     6514     TIP3     OH2      OT      -0.834000       15.9994           0
     41851 TIP3     6514     TIP3     H1       HT       0.417000       1.00800           0
     41852 TIP3     6514     TIP3     H2       HT       0.417000       1.00800           0
     41853 TIP3     6515     TIP3     OH2      OT      -0.834000       15.9994           0
     41854 TIP3     6515     TIP3     H1       HT       0.417000       1.00800           0
     41855 TIP3     6515     TIP3     H2       HT       0.417000       1.00800           0
     41856 TIP3     6516     TIP3     OH2      OT      -0.834000       15.9994           0
     41857 TIP3     6516     TIP3     H1       HT       0.417000       1.00800           0
     41858 TIP3     6516     TIP3     H2       HT       0.417000       1.00800           0
     41859 TIP3     6517     TIP3     OH2      OT      -0.834000       15.9994           0
     41860 TIP3     6517     TIP3     H1       HT       0.417000       1.00800           0
     41861 TIP3     6517     TIP3     H2       HT       0.417000       1.00800           0
     41862 TIP3     6518     TIP3     OH2      OT      -0.834000       15.9994           0
     41863 TIP3     6518     TIP3     H1       HT       0.417000       1.00800           0
     41864 TIP3     6518     TIP3     H2       HT       0.417000       1.00800           0
     41865 TIP3     6519     TIP3     OH2      OT      -0.834000       15.9994           0
     41866 TIP3     6519     TIP3     H1       HT       0.417000       1.00800           0
     41867 TIP3     6519     TIP3     H2       HT       0.417000       1.00800           0
     41868 TIP3     6520     TIP3     OH2      OT      -0.834000       15.9994           0
     41869 TIP3     6520     TIP3     H1       HT       0.417000       1.00800           0
     41870 TIP3     6520     TIP3     H2       HT       0.417000       1.00800           0
     41871 TIP3     6521     TIP3     OH2      OT      -0.834000       15.9994           0
     41872 TIP3     6521     TIP3     H1       HT       0.417000       1.00800           0
     41873 TIP3     6521     TIP3     H2       HT       0.417000       1.00800           0
     41874 TIP3     6522     TIP3     OH2      OT      -0.834000       15.9994           0
     41875 TIP3     6522     TIP3     H1       HT       0.417000       1.00800           0
     41876 TIP3     6522     TIP3     H2       HT       0.417000       1.00800           0
     41877 TIP3     6523     TIP3     OH2      OT      -0.834000       15.9994           0
     41878 TIP3     6523     TIP3     H1       HT       0.417000       1.00800           0
     41879 TIP3     6523     TIP3     H2       HT       0.417000       1.00800           0
     41880 TIP3     6524     TIP3     OH2      OT      -0.834000       15.9994           0
     41881 TIP3     6524     TIP3     H1       HT       0.417000       1.00800           0
     41882 TIP3     6524     TIP3     H2       HT       0.417000       1.00800           0
     41883 TIP3     6525     TIP3     OH2      OT      -0.834000       15.9994           0
     41884 TIP3     6525     TIP3     H1       HT       0.417000       1.00800           0
     41885 TIP3     6525     TIP3     H2       HT       0.417000       1.00800           0
     41886 TIP3     6526     TIP3     OH2      OT      -0.834000       15.9994           0
     41887 TIP3     6526     TIP3     H1       HT       0.417000       1.00800           0
     41888 TIP3     6526     TIP3     H2       HT       0.417000       1.00800           0
     41889 TIP3     6527     TIP3     OH2      OT      -0.834000       15.9994           0
     41890 TIP3     6527     TIP3     H1       HT       0.417000       1.00800           0
     41891 TIP3     6527     TIP3     H2       HT       0.417000       1.00800           0
     41892 TIP3     6528     TIP3     OH2      OT      -0.834000       15.9994           0
     41893 TIP3     6528     TIP3     H1       HT       0.417000       1.00800           0
     41894 TIP3     6528     TIP3     H2       HT       0.417000       1.00800           0
     41895 TIP3     6529     TIP3     OH2      OT      -0.834000       15.9994           0
     41896 TIP3     6529     TIP3     H1       HT       0.417000       1.00800           0
     41897 TIP3     6529     TIP3     H2       HT       0.417000       1.00800           0
     41898 TIP3     6530     TIP3     OH2      OT      -0.834000       15.9994           0
     41899 TIP3     6530     TIP3     H1       HT       0.417000       1.00800           0
     41900 TIP3     6530     TIP3     H2       HT       0.417000       1.00800           0
     41901 TIP3     6531     TIP3     OH2      OT      -0.834000       15.9994           0
     41902 TIP3     6531     TIP3     H1       HT       0.417000       1.00800           0
     41903 TIP3     6531     TIP3     H2       HT       0.417000       1.00800           0
     41904 TIP3     6532     TIP3     OH2      OT      -0.834000       15.9994           0
     41905 TIP3     6532     TIP3     H1       HT       0.417000       1.00800           0
     41906 TIP3     6532     TIP3     H2       HT       0.417000       1.00800           0
     41907 TIP3     6533     TIP3     OH2      OT      -0.834000       15.9994           0
     41908 TIP3     6533     TIP3     H1       HT       0.417000       1.00800           0
     41909 TIP3     6533     TIP3     H2       HT       0.417000       1.00800           0
     41910 TIP3     6534     TIP3     OH2      OT      -0.834000       15.9994           0
     41911 TIP3     6534     TIP3     H1       HT       0.417000       1.00800           0
     41912 TIP3     6534     TIP3     H2       HT       0.417000       1.00800           0
     41913 TIP3     6535     TIP3     OH2      OT      -0.834000       15.9994           0
     41914 TIP3     6535     TIP3     H1       HT       0.417000       1.00800           0
     41915 TIP3     6535     TIP3     H2       HT       0.417000       1.00800           0
     41916 TIP3     6536     TIP3     OH2      OT      -0.834000       15.9994           0
     41917 TIP3     6536     TIP3     H1       HT       0.417000       1.00800           0
     41918 TIP3     6536     TIP3     H2       HT       0.417000       1.00800           0
     41919 TIP3     6537     TIP3     OH2      OT      -0.834000       15.9994           0
     41920 TIP3     6537     TIP3     H1       HT       0.417000       1.00800           0
     41921 TIP3     6537     TIP3     H2       HT       0.417000       1.00800           0
     41922 TIP3     6538     TIP3     OH2      OT      -0.834000       15.9994           0
     41923 TIP3     6538     TIP3     H1       HT       0.417000       1.00800           0
     41924 TIP3     6538     TIP3     H2       HT       0.417000       1.00800           0
     41925 TIP3     6539     TIP3     OH2      OT      -0.834000       15.9994           0
     41926 TIP3     6539     TIP3     H1       HT       0.417000       1.00800           0
     41927 TIP3     6539     TIP3     H2       HT       0.417000       1.00800           0
     41928 TIP3     6540     TIP3     OH2      OT      -0.834000       15.9994           0
     41929 TIP3     6540     TIP3     H1       HT       0.417000       1.00800           0
     41930 TIP3     6540     TIP3     H2       HT       0.417000       1.00800           0
     41931 TIP3     6541     TIP3     OH2      OT      -0.834000       15.9994           0
     41932 TIP3     6541     TIP3     H1       HT       0.417000       1.00800           0
     41933 TIP3     6541     TIP3     H2       HT       0.417000       1.00800           0
     41934 TIP3     6542     TIP3     OH2      OT      -0.834000       15.9994           0
     41935 TIP3     6542     TIP3     H1       HT       0.417000       1.00800           0
     41936 TIP3     6542     TIP3     H2       HT       0.417000       1.00800           0
     41937 TIP3     6543     TIP3     OH2      OT      -0.834000       15.9994           0
     41938 TIP3     6543     TIP3     H1       HT       0.417000       1.00800           0
     41939 TIP3     6543     TIP3     H2       HT       0.417000       1.00800           0
     41940 TIP3     6544     TIP3     OH2      OT      -0.834000       15.9994           0
     41941 TIP3     6544     TIP3     H1       HT       0.417000       1.00800           0
     41942 TIP3     6544     TIP3     H2       HT       0.417000       1.00800           0
     41943 TIP3     6545     TIP3     OH2      OT      -0.834000       15.9994           0
     41944 TIP3     6545     TIP3     H1       HT       0.417000       1.00800           0
     41945 TIP3     6545     TIP3     H2       HT       0.417000       1.00800           0
     41946 TIP3     6546     TIP3     OH2      OT      -0.834000       15.9994           0
     41947 TIP3     6546     TIP3     H1       HT       0.417000       1.00800           0
     41948 TIP3     6546     TIP3     H2       HT       0.417000       1.00800           0
     41949 TIP3     6547     TIP3     OH2      OT      -0.834000       15.9994           0
     41950 TIP3     6547     TIP3     H1       HT       0.417000       1.00800           0
     41951 TIP3     6547     TIP3     H2       HT       0.417000       1.00800           0
     41952 TIP3     6548     TIP3     OH2      OT      -0.834000       15.9994           0
     41953 TIP3     6548     TIP3     H1       HT       0.417000       1.00800           0
     41954 TIP3     6548     TIP3     H2       HT       0.417000       1.00800           0
     41955 TIP3     6549     TIP3     OH2      OT      -0.834000       15.9994           0
     41956 TIP3     6549     TIP3     H1       HT       0.417000       1.00800           0
     41957 TIP3     6549     TIP3     H2       HT       0.417000       1.00800           0
     41958 TIP3     6550     TIP3     OH2      OT      -0.834000       15.9994           0
     41959 TIP3     6550     TIP3     H1       HT       0.417000       1.00800           0
     41960 TIP3     6550     TIP3     H2       HT       0.417000       1.00800           0
     41961 TIP3     6551     TIP3     OH2      OT      -0.834000       15.9994           0
     41962 TIP3     6551     TIP3     H1       HT       0.417000       1.00800           0
     41963 TIP3     6551     TIP3     H2       HT       0.417000       1.00800           0
     41964 TIP3     6552     TIP3     OH2      OT      -0.834000       15.9994           0
     41965 TIP3     6552     TIP3     H1       HT       0.417000       1.00800           0
     41966 TIP3     6552     TIP3     H2       HT       0.417000       1.00800           0
     41967 TIP3     6553     TIP3     OH2      OT      -0.834000       15.9994           0
     41968 TIP3     6553     TIP3     H1       HT       0.417000       1.00800           0
     41969 TIP3     6553     TIP3     H2       HT       0.417000       1.00800           0
     41970 TIP3     6554     TIP3     OH2      OT      -0.834000       15.9994           0
     41971 TIP3     6554     TIP3     H1       HT       0.417000       1.00800           0
     41972 TIP3     6554     TIP3     H2       HT       0.417000       1.00800           0
     41973 TIP3     6555     TIP3     OH2      OT      -0.834000       15.9994           0
     41974 TIP3     6555     TIP3     H1       HT       0.417000       1.00800           0
     41975 TIP3     6555     TIP3     H2       HT       0.417000       1.00800           0
     41976 TIP3     6556     TIP3     OH2      OT      -0.834000       15.9994           0
     41977 TIP3     6556     TIP3     H1       HT       0.417000       1.00800           0
     41978 TIP3     6556     TIP3     H2       HT       0.417000       1.00800           0
     41979 TIP3     6557     TIP3     OH2      OT      -0.834000       15.9994           0
     41980 TIP3     6557     TIP3     H1       HT       0.417000       1.00800           0
     41981 TIP3     6557     TIP3     H2       HT       0.417000       1.00800           0
     41982 TIP3     6558     TIP3     OH2      OT      -0.834000       15.9994           0
     41983 TIP3     6558     TIP3     H1       HT       0.417000       1.00800           0
     41984 TIP3     6558     TIP3     H2       HT       0.417000       1.00800           0
     41985 TIP3     6559     TIP3     OH2      OT      -0.834000       15.9994           0
     41986 TIP3     6559     TIP3     H1       HT       0.417000       1.00800           0
     41987 TIP3     6559     TIP3     H2       HT       0.417000       1.00800           0
     41988 TIP3     6560     TIP3     OH2      OT      -0.834000       15.9994           0
     41989 TIP3     6560     TIP3     H1       HT       0.417000       1.00800           0
     41990 TIP3     6560     TIP3     H2       HT       0.417000       1.00800           0
     41991 TIP3     6561     TIP3     OH2      OT      -0.834000       15.9994           0
     41992 TIP3     6561     TIP3     H1       HT       0.417000       1.00800           0
     41993 TIP3     6561     TIP3     H2       HT       0.417000       1.00800           0
     41994 TIP3     6562     TIP3     OH2      OT      -0.834000       15.9994           0
     41995 TIP3     6562     TIP3     H1       HT       0.417000       1.00800           0
     41996 TIP3     6562     TIP3     H2       HT       0.417000       1.00800           0
     41997 TIP3     6563     TIP3     OH2      OT      -0.834000       15.9994           0
     41998 TIP3     6563     TIP3     H1       HT       0.417000       1.00800           0
     41999 TIP3     6563     TIP3     H2       HT       0.417000       1.00800           0
     42000 TIP3     6564     TIP3     OH2      OT      -0.834000       15.9994           0
     42001 TIP3     6564     TIP3     H1       HT       0.417000       1.00800           0
     42002 TIP3     6564     TIP3     H2       HT       0.417000       1.00800           0
     42003 TIP3     6565     TIP3     OH2      OT      -0.834000       15.9994           0
     42004 TIP3     6565     TIP3     H1       HT       0.417000       1.00800           0
     42005 TIP3     6565     TIP3     H2       HT       0.417000       1.00800           0
     42006 TIP3     6566     TIP3     OH2      OT      -0.834000       15.9994           0
     42007 TIP3     6566     TIP3     H1       HT       0.417000       1.00800           0
     42008 TIP3     6566     TIP3     H2       HT       0.417000       1.00800           0
     42009 TIP3     6567     TIP3     OH2      OT      -0.834000       15.9994           0
     42010 TIP3     6567     TIP3     H1       HT       0.417000       1.00800           0
     42011 TIP3     6567     TIP3     H2       HT       0.417000       1.00800           0
     42012 TIP3     6568     TIP3     OH2      OT      -0.834000       15.9994           0
     42013 TIP3     6568     TIP3     H1       HT       0.417000       1.00800           0
     42014 TIP3     6568     TIP3     H2       HT       0.417000       1.00800           0
     42015 TIP3     6569     TIP3     OH2      OT      -0.834000       15.9994           0
     42016 TIP3     6569     TIP3     H1       HT       0.417000       1.00800           0
     42017 TIP3     6569     TIP3     H2       HT       0.417000       1.00800           0
     42018 TIP3     6570     TIP3     OH2      OT      -0.834000       15.9994           0
     42019 TIP3     6570     TIP3     H1       HT       0.417000       1.00800           0
     42020 TIP3     6570     TIP3     H2       HT       0.417000       1.00800           0
     42021 TIP3     6571     TIP3     OH2      OT      -0.834000       15.9994           0
     42022 TIP3     6571     TIP3     H1       HT       0.417000       1.00800           0
     42023 TIP3     6571     TIP3     H2       HT       0.417000       1.00800           0
     42024 TIP3     6572     TIP3     OH2      OT      -0.834000       15.9994           0
     42025 TIP3     6572     TIP3     H1       HT       0.417000       1.00800           0
     42026 TIP3     6572     TIP3     H2       HT       0.417000       1.00800           0
     42027 TIP3     6573     TIP3     OH2      OT      -0.834000       15.9994           0
     42028 TIP3     6573     TIP3     H1       HT       0.417000       1.00800           0
     42029 TIP3     6573     TIP3     H2       HT       0.417000       1.00800           0
     42030 TIP3     6574     TIP3     OH2      OT      -0.834000       15.9994           0
     42031 TIP3     6574     TIP3     H1       HT       0.417000       1.00800           0
     42032 TIP3     6574     TIP3     H2       HT       0.417000       1.00800           0
     42033 TIP3     6575     TIP3     OH2      OT      -0.834000       15.9994           0
     42034 TIP3     6575     TIP3     H1       HT       0.417000       1.00800           0
     42035 TIP3     6575     TIP3     H2       HT       0.417000       1.00800           0
     42036 TIP3     6576     TIP3     OH2      OT      -0.834000       15.9994           0
     42037 TIP3     6576     TIP3     H1       HT       0.417000       1.00800           0
     42038 TIP3     6576     TIP3     H2       HT       0.417000       1.00800           0
     42039 TIP3     6577     TIP3     OH2      OT      -0.834000       15.9994           0
     42040 TIP3     6577     TIP3     H1       HT       0.417000       1.00800           0
     42041 TIP3     6577     TIP3     H2       HT       0.417000       1.00800           0
     42042 TIP3     6578     TIP3     OH2      OT      -0.834000       15.9994           0
     42043 TIP3     6578     TIP3     H1       HT       0.417000       1.00800           0
     42044 TIP3     6578     TIP3     H2       HT       0.417000       1.00800           0
     42045 TIP3     6579     TIP3     OH2      OT      -0.834000       15.9994           0
     42046 TIP3     6579     TIP3     H1       HT       0.417000       1.00800           0
     42047 TIP3     6579     TIP3     H2       HT       0.417000       1.00800           0
     42048 TIP3     6580     TIP3     OH2      OT      -0.834000       15.9994           0
     42049 TIP3     6580     TIP3     H1       HT       0.417000       1.00800           0
     42050 TIP3     6580     TIP3     H2       HT       0.417000       1.00800           0
     42051 TIP3     6581     TIP3     OH2      OT      -0.834000       15.9994           0
     42052 TIP3     6581     TIP3     H1       HT       0.417000       1.00800           0
     42053 TIP3     6581     TIP3     H2       HT       0.417000       1.00800           0
     42054 TIP3     6582     TIP3     OH2      OT      -0.834000       15.9994           0
     42055 TIP3     6582     TIP3     H1       HT       0.417000       1.00800           0
     42056 TIP3     6582     TIP3     H2       HT       0.417000       1.00800           0
     42057 TIP3     6583     TIP3     OH2      OT      -0.834000       15.9994           0
     42058 TIP3     6583     TIP3     H1       HT       0.417000       1.00800           0
     42059 TIP3     6583     TIP3     H2       HT       0.417000       1.00800           0
     42060 TIP3     6584     TIP3     OH2      OT      -0.834000       15.9994           0
     42061 TIP3     6584     TIP3     H1       HT       0.417000       1.00800           0
     42062 TIP3     6584     TIP3     H2       HT       0.417000       1.00800           0
     42063 TIP3     6585     TIP3     OH2      OT      -0.834000       15.9994           0
     42064 TIP3     6585     TIP3     H1       HT       0.417000       1.00800           0
     42065 TIP3     6585     TIP3     H2       HT       0.417000       1.00800           0
     42066 TIP3     6586     TIP3     OH2      OT      -0.834000       15.9994           0
     42067 TIP3     6586     TIP3     H1       HT       0.417000       1.00800           0
     42068 TIP3     6586     TIP3     H2       HT       0.417000       1.00800           0
     42069 TIP3     6587     TIP3     OH2      OT      -0.834000       15.9994           0
     42070 TIP3     6587     TIP3     H1       HT       0.417000       1.00800           0
     42071 TIP3     6587     TIP3     H2       HT       0.417000       1.00800           0
     42072 TIP3     6588     TIP3     OH2      OT      -0.834000       15.9994           0
     42073 TIP3     6588     TIP3     H1       HT       0.417000       1.00800           0
     42074 TIP3     6588     TIP3     H2       HT       0.417000       1.00800           0
     42075 TIP3     6589     TIP3     OH2      OT      -0.834000       15.9994           0
     42076 TIP3     6589     TIP3     H1       HT       0.417000       1.00800           0
     42077 TIP3     6589     TIP3     H2       HT       0.417000       1.00800           0
     42078 TIP3     6590     TIP3     OH2      OT      -0.834000       15.9994           0
     42079 TIP3     6590     TIP3     H1       HT       0.417000       1.00800           0
     42080 TIP3     6590     TIP3     H2       HT       0.417000       1.00800           0
     42081 TIP3     6591     TIP3     OH2      OT      -0.834000       15.9994           0
     42082 TIP3     6591     TIP3     H1       HT       0.417000       1.00800           0
     42083 TIP3     6591     TIP3     H2       HT       0.417000       1.00800           0
     42084 TIP3     6592     TIP3     OH2      OT      -0.834000       15.9994           0
     42085 TIP3     6592     TIP3     H1       HT       0.417000       1.00800           0
     42086 TIP3     6592     TIP3     H2       HT       0.417000       1.00800           0
     42087 TIP3     6593     TIP3     OH2      OT      -0.834000       15.9994           0
     42088 TIP3     6593     TIP3     H1       HT       0.417000       1.00800           0
     42089 TIP3     6593     TIP3     H2       HT       0.417000       1.00800           0
     42090 TIP3     6594     TIP3     OH2      OT      -0.834000       15.9994           0
     42091 TIP3     6594     TIP3     H1       HT       0.417000       1.00800           0
     42092 TIP3     6594     TIP3     H2       HT       0.417000       1.00800           0
     42093 TIP3     6595     TIP3     OH2      OT      -0.834000       15.9994           0
     42094 TIP3     6595     TIP3     H1       HT       0.417000       1.00800           0
     42095 TIP3     6595     TIP3     H2       HT       0.417000       1.00800           0
     42096 TIP3     6596     TIP3     OH2      OT      -0.834000       15.9994           0
     42097 TIP3     6596     TIP3     H1       HT       0.417000       1.00800           0
     42098 TIP3     6596     TIP3     H2       HT       0.417000       1.00800           0
     42099 TIP3     6597     TIP3     OH2      OT      -0.834000       15.9994           0
     42100 TIP3     6597     TIP3     H1       HT       0.417000       1.00800           0
     42101 TIP3     6597     TIP3     H2       HT       0.417000       1.00800           0
     42102 TIP3     6598     TIP3     OH2      OT      -0.834000       15.9994           0
     42103 TIP3     6598     TIP3     H1       HT       0.417000       1.00800           0
     42104 TIP3     6598     TIP3     H2       HT       0.417000       1.00800           0
     42105 TIP3     6599     TIP3     OH2      OT      -0.834000       15.9994           0
     42106 TIP3     6599     TIP3     H1       HT       0.417000       1.00800           0
     42107 TIP3     6599     TIP3     H2       HT       0.417000       1.00800           0
     42108 TIP3     6600     TIP3     OH2      OT      -0.834000       15.9994           0
     42109 TIP3     6600     TIP3     H1       HT       0.417000       1.00800           0
     42110 TIP3     6600     TIP3     H2       HT       0.417000       1.00800           0
     42111 TIP3     6601     TIP3     OH2      OT      -0.834000       15.9994           0
     42112 TIP3     6601     TIP3     H1       HT       0.417000       1.00800           0
     42113 TIP3     6601     TIP3     H2       HT       0.417000       1.00800           0
     42114 TIP3     6602     TIP3     OH2      OT      -0.834000       15.9994           0
     42115 TIP3     6602     TIP3     H1       HT       0.417000       1.00800           0
     42116 TIP3     6602     TIP3     H2       HT       0.417000       1.00800           0
     42117 TIP3     6603     TIP3     OH2      OT      -0.834000       15.9994           0
     42118 TIP3     6603     TIP3     H1       HT       0.417000       1.00800           0
     42119 TIP3     6603     TIP3     H2       HT       0.417000       1.00800           0
     42120 TIP3     6604     TIP3     OH2      OT      -0.834000       15.9994           0
     42121 TIP3     6604     TIP3     H1       HT       0.417000       1.00800           0
     42122 TIP3     6604     TIP3     H2       HT       0.417000       1.00800           0
     42123 TIP3     6605     TIP3     OH2      OT      -0.834000       15.9994           0
     42124 TIP3     6605     TIP3     H1       HT       0.417000       1.00800           0
     42125 TIP3     6605     TIP3     H2       HT       0.417000       1.00800           0
     42126 TIP3     6606     TIP3     OH2      OT      -0.834000       15.9994           0
     42127 TIP3     6606     TIP3     H1       HT       0.417000       1.00800           0
     42128 TIP3     6606     TIP3     H2       HT       0.417000       1.00800           0
     42129 TIP3     6607     TIP3     OH2      OT      -0.834000       15.9994           0
     42130 TIP3     6607     TIP3     H1       HT       0.417000       1.00800           0
     42131 TIP3     6607     TIP3     H2       HT       0.417000       1.00800           0
     42132 TIP3     6608     TIP3     OH2      OT      -0.834000       15.9994           0
     42133 TIP3     6608     TIP3     H1       HT       0.417000       1.00800           0
     42134 TIP3     6608     TIP3     H2       HT       0.417000       1.00800           0
     42135 TIP3     6609     TIP3     OH2      OT      -0.834000       15.9994           0
     42136 TIP3     6609     TIP3     H1       HT       0.417000       1.00800           0
     42137 TIP3     6609     TIP3     H2       HT       0.417000       1.00800           0
     42138 TIP3     6610     TIP3     OH2      OT      -0.834000       15.9994           0
     42139 TIP3     6610     TIP3     H1       HT       0.417000       1.00800           0
     42140 TIP3     6610     TIP3     H2       HT       0.417000       1.00800           0
     42141 TIP3     6611     TIP3     OH2      OT      -0.834000       15.9994           0
     42142 TIP3     6611     TIP3     H1       HT       0.417000       1.00800           0
     42143 TIP3     6611     TIP3     H2       HT       0.417000       1.00800           0
     42144 TIP3     6612     TIP3     OH2      OT      -0.834000       15.9994           0
     42145 TIP3     6612     TIP3     H1       HT       0.417000       1.00800           0
     42146 TIP3     6612     TIP3     H2       HT       0.417000       1.00800           0
     42147 TIP3     6613     TIP3     OH2      OT      -0.834000       15.9994           0
     42148 TIP3     6613     TIP3     H1       HT       0.417000       1.00800           0
     42149 TIP3     6613     TIP3     H2       HT       0.417000       1.00800           0
     42150 TIP3     6614     TIP3     OH2      OT      -0.834000       15.9994           0
     42151 TIP3     6614     TIP3     H1       HT       0.417000       1.00800           0
     42152 TIP3     6614     TIP3     H2       HT       0.417000       1.00800           0
     42153 TIP3     6615     TIP3     OH2      OT      -0.834000       15.9994           0
     42154 TIP3     6615     TIP3     H1       HT       0.417000       1.00800           0
     42155 TIP3     6615     TIP3     H2       HT       0.417000       1.00800           0
     42156 TIP3     6616     TIP3     OH2      OT      -0.834000       15.9994           0
     42157 TIP3     6616     TIP3     H1       HT       0.417000       1.00800           0
     42158 TIP3     6616     TIP3     H2       HT       0.417000       1.00800           0
     42159 TIP3     6617     TIP3     OH2      OT      -0.834000       15.9994           0
     42160 TIP3     6617     TIP3     H1       HT       0.417000       1.00800           0
     42161 TIP3     6617     TIP3     H2       HT       0.417000       1.00800           0
     42162 TIP3     6618     TIP3     OH2      OT      -0.834000       15.9994           0
     42163 TIP3     6618     TIP3     H1       HT       0.417000       1.00800           0
     42164 TIP3     6618     TIP3     H2       HT       0.417000       1.00800           0
     42165 TIP3     6619     TIP3     OH2      OT      -0.834000       15.9994           0
     42166 TIP3     6619     TIP3     H1       HT       0.417000       1.00800           0
     42167 TIP3     6619     TIP3     H2       HT       0.417000       1.00800           0
     42168 TIP3     6620     TIP3     OH2      OT      -0.834000       15.9994           0
     42169 TIP3     6620     TIP3     H1       HT       0.417000       1.00800           0
     42170 TIP3     6620     TIP3     H2       HT       0.417000       1.00800           0
     42171 TIP3     6621     TIP3     OH2      OT      -0.834000       15.9994           0
     42172 TIP3     6621     TIP3     H1       HT       0.417000       1.00800           0
     42173 TIP3     6621     TIP3     H2       HT       0.417000       1.00800           0
     42174 TIP3     6622     TIP3     OH2      OT      -0.834000       15.9994           0
     42175 TIP3     6622     TIP3     H1       HT       0.417000       1.00800           0
     42176 TIP3     6622     TIP3     H2       HT       0.417000       1.00800           0
     42177 TIP3     6623     TIP3     OH2      OT      -0.834000       15.9994           0
     42178 TIP3     6623     TIP3     H1       HT       0.417000       1.00800           0
     42179 TIP3     6623     TIP3     H2       HT       0.417000       1.00800           0
     42180 TIP3     6624     TIP3     OH2      OT      -0.834000       15.9994           0
     42181 TIP3     6624     TIP3     H1       HT       0.417000       1.00800           0
     42182 TIP3     6624     TIP3     H2       HT       0.417000       1.00800           0
     42183 TIP3     6625     TIP3     OH2      OT      -0.834000       15.9994           0
     42184 TIP3     6625     TIP3     H1       HT       0.417000       1.00800           0
     42185 TIP3     6625     TIP3     H2       HT       0.417000       1.00800           0
     42186 TIP3     6626     TIP3     OH2      OT      -0.834000       15.9994           0
     42187 TIP3     6626     TIP3     H1       HT       0.417000       1.00800           0
     42188 TIP3     6626     TIP3     H2       HT       0.417000       1.00800           0
     42189 TIP3     6627     TIP3     OH2      OT      -0.834000       15.9994           0
     42190 TIP3     6627     TIP3     H1       HT       0.417000       1.00800           0
     42191 TIP3     6627     TIP3     H2       HT       0.417000       1.00800           0
     42192 TIP3     6628     TIP3     OH2      OT      -0.834000       15.9994           0
     42193 TIP3     6628     TIP3     H1       HT       0.417000       1.00800           0
     42194 TIP3     6628     TIP3     H2       HT       0.417000       1.00800           0
     42195 TIP3     6629     TIP3     OH2      OT      -0.834000       15.9994           0
     42196 TIP3     6629     TIP3     H1       HT       0.417000       1.00800           0
     42197 TIP3     6629     TIP3     H2       HT       0.417000       1.00800           0
     42198 TIP3     6630     TIP3     OH2      OT      -0.834000       15.9994           0
     42199 TIP3     6630     TIP3     H1       HT       0.417000       1.00800           0
     42200 TIP3     6630     TIP3     H2       HT       0.417000       1.00800           0
     42201 TIP3     6631     TIP3     OH2      OT      -0.834000       15.9994           0
     42202 TIP3     6631     TIP3     H1       HT       0.417000       1.00800           0
     42203 TIP3     6631     TIP3     H2       HT       0.417000       1.00800           0
     42204 TIP3     6632     TIP3     OH2      OT      -0.834000       15.9994           0
     42205 TIP3     6632     TIP3     H1       HT       0.417000       1.00800           0
     42206 TIP3     6632     TIP3     H2       HT       0.417000       1.00800           0
     42207 TIP3     6633     TIP3     OH2      OT      -0.834000       15.9994           0
     42208 TIP3     6633     TIP3     H1       HT       0.417000       1.00800           0
     42209 TIP3     6633     TIP3     H2       HT       0.417000       1.00800           0
     42210 TIP3     6634     TIP3     OH2      OT      -0.834000       15.9994           0
     42211 TIP3     6634     TIP3     H1       HT       0.417000       1.00800           0
     42212 TIP3     6634     TIP3     H2       HT       0.417000       1.00800           0
     42213 TIP3     6635     TIP3     OH2      OT      -0.834000       15.9994           0
     42214 TIP3     6635     TIP3     H1       HT       0.417000       1.00800           0
     42215 TIP3     6635     TIP3     H2       HT       0.417000       1.00800           0
     42216 TIP3     6636     TIP3     OH2      OT      -0.834000       15.9994           0
     42217 TIP3     6636     TIP3     H1       HT       0.417000       1.00800           0
     42218 TIP3     6636     TIP3     H2       HT       0.417000       1.00800           0
     42219 TIP3     6637     TIP3     OH2      OT      -0.834000       15.9994           0
     42220 TIP3     6637     TIP3     H1       HT       0.417000       1.00800           0
     42221 TIP3     6637     TIP3     H2       HT       0.417000       1.00800           0
     42222 TIP3     6638     TIP3     OH2      OT      -0.834000       15.9994           0
     42223 TIP3     6638     TIP3     H1       HT       0.417000       1.00800           0
     42224 TIP3     6638     TIP3     H2       HT       0.417000       1.00800           0
     42225 TIP3     6639     TIP3     OH2      OT      -0.834000       15.9994           0
     42226 TIP3     6639     TIP3     H1       HT       0.417000       1.00800           0
     42227 TIP3     6639     TIP3     H2       HT       0.417000       1.00800           0
     42228 TIP3     6640     TIP3     OH2      OT      -0.834000       15.9994           0
     42229 TIP3     6640     TIP3     H1       HT       0.417000       1.00800           0
     42230 TIP3     6640     TIP3     H2       HT       0.417000       1.00800           0
     42231 TIP3     6641     TIP3     OH2      OT      -0.834000       15.9994           0
     42232 TIP3     6641     TIP3     H1       HT       0.417000       1.00800           0
     42233 TIP3     6641     TIP3     H2       HT       0.417000       1.00800           0
     42234 TIP3     6642     TIP3     OH2      OT      -0.834000       15.9994           0
     42235 TIP3     6642     TIP3     H1       HT       0.417000       1.00800           0
     42236 TIP3     6642     TIP3     H2       HT       0.417000       1.00800           0
     42237 TIP3     6643     TIP3     OH2      OT      -0.834000       15.9994           0
     42238 TIP3     6643     TIP3     H1       HT       0.417000       1.00800           0
     42239 TIP3     6643     TIP3     H2       HT       0.417000       1.00800           0
     42240 TIP3     6644     TIP3     OH2      OT      -0.834000       15.9994           0
     42241 TIP3     6644     TIP3     H1       HT       0.417000       1.00800           0
     42242 TIP3     6644     TIP3     H2       HT       0.417000       1.00800           0
     42243 TIP3     6645     TIP3     OH2      OT      -0.834000       15.9994           0
     42244 TIP3     6645     TIP3     H1       HT       0.417000       1.00800           0
     42245 TIP3     6645     TIP3     H2       HT       0.417000       1.00800           0
     42246 TIP3     6646     TIP3     OH2      OT      -0.834000       15.9994           0
     42247 TIP3     6646     TIP3     H1       HT       0.417000       1.00800           0
     42248 TIP3     6646     TIP3     H2       HT       0.417000       1.00800           0
     42249 TIP3     6647     TIP3     OH2      OT      -0.834000       15.9994           0
     42250 TIP3     6647     TIP3     H1       HT       0.417000       1.00800           0
     42251 TIP3     6647     TIP3     H2       HT       0.417000       1.00800           0
     42252 TIP3     6648     TIP3     OH2      OT      -0.834000       15.9994           0
     42253 TIP3     6648     TIP3     H1       HT       0.417000       1.00800           0
     42254 TIP3     6648     TIP3     H2       HT       0.417000       1.00800           0
     42255 TIP3     6649     TIP3     OH2      OT      -0.834000       15.9994           0
     42256 TIP3     6649     TIP3     H1       HT       0.417000       1.00800           0
     42257 TIP3     6649     TIP3     H2       HT       0.417000       1.00800           0
     42258 TIP3     6650     TIP3     OH2      OT      -0.834000       15.9994           0
     42259 TIP3     6650     TIP3     H1       HT       0.417000       1.00800           0
     42260 TIP3     6650     TIP3     H2       HT       0.417000       1.00800           0
     42261 TIP3     6651     TIP3     OH2      OT      -0.834000       15.9994           0
     42262 TIP3     6651     TIP3     H1       HT       0.417000       1.00800           0
     42263 TIP3     6651     TIP3     H2       HT       0.417000       1.00800           0
     42264 TIP3     6652     TIP3     OH2      OT      -0.834000       15.9994           0
     42265 TIP3     6652     TIP3     H1       HT       0.417000       1.00800           0
     42266 TIP3     6652     TIP3     H2       HT       0.417000       1.00800           0
     42267 TIP3     6653     TIP3     OH2      OT      -0.834000       15.9994           0
     42268 TIP3     6653     TIP3     H1       HT       0.417000       1.00800           0
     42269 TIP3     6653     TIP3     H2       HT       0.417000       1.00800           0
     42270 TIP3     6654     TIP3     OH2      OT      -0.834000       15.9994           0
     42271 TIP3     6654     TIP3     H1       HT       0.417000       1.00800           0
     42272 TIP3     6654     TIP3     H2       HT       0.417000       1.00800           0
     42273 TIP3     6655     TIP3     OH2      OT      -0.834000       15.9994           0
     42274 TIP3     6655     TIP3     H1       HT       0.417000       1.00800           0
     42275 TIP3     6655     TIP3     H2       HT       0.417000       1.00800           0
     42276 TIP3     6656     TIP3     OH2      OT      -0.834000       15.9994           0
     42277 TIP3     6656     TIP3     H1       HT       0.417000       1.00800           0
     42278 TIP3     6656     TIP3     H2       HT       0.417000       1.00800           0
     42279 TIP3     6657     TIP3     OH2      OT      -0.834000       15.9994           0
     42280 TIP3     6657     TIP3     H1       HT       0.417000       1.00800           0
     42281 TIP3     6657     TIP3     H2       HT       0.417000       1.00800           0
     42282 TIP3     6658     TIP3     OH2      OT      -0.834000       15.9994           0
     42283 TIP3     6658     TIP3     H1       HT       0.417000       1.00800           0
     42284 TIP3     6658     TIP3     H2       HT       0.417000       1.00800           0
     42285 TIP3     6659     TIP3     OH2      OT      -0.834000       15.9994           0
     42286 TIP3     6659     TIP3     H1       HT       0.417000       1.00800           0
     42287 TIP3     6659     TIP3     H2       HT       0.417000       1.00800           0
     42288 TIP3     6660     TIP3     OH2      OT      -0.834000       15.9994           0
     42289 TIP3     6660     TIP3     H1       HT       0.417000       1.00800           0
     42290 TIP3     6660     TIP3     H2       HT       0.417000       1.00800           0
     42291 TIP3     6661     TIP3     OH2      OT      -0.834000       15.9994           0
     42292 TIP3     6661     TIP3     H1       HT       0.417000       1.00800           0
     42293 TIP3     6661     TIP3     H2       HT       0.417000       1.00800           0
     42294 TIP3     6662     TIP3     OH2      OT      -0.834000       15.9994           0
     42295 TIP3     6662     TIP3     H1       HT       0.417000       1.00800           0
     42296 TIP3     6662     TIP3     H2       HT       0.417000       1.00800           0
     42297 TIP3     6663     TIP3     OH2      OT      -0.834000       15.9994           0
     42298 TIP3     6663     TIP3     H1       HT       0.417000       1.00800           0
     42299 TIP3     6663     TIP3     H2       HT       0.417000       1.00800           0
     42300 TIP3     6664     TIP3     OH2      OT      -0.834000       15.9994           0
     42301 TIP3     6664     TIP3     H1       HT       0.417000       1.00800           0
     42302 TIP3     6664     TIP3     H2       HT       0.417000       1.00800           0
     42303 TIP3     6665     TIP3     OH2      OT      -0.834000       15.9994           0
     42304 TIP3     6665     TIP3     H1       HT       0.417000       1.00800           0
     42305 TIP3     6665     TIP3     H2       HT       0.417000       1.00800           0
     42306 TIP3     6666     TIP3     OH2      OT      -0.834000       15.9994           0
     42307 TIP3     6666     TIP3     H1       HT       0.417000       1.00800           0
     42308 TIP3     6666     TIP3     H2       HT       0.417000       1.00800           0
     42309 TIP3     6667     TIP3     OH2      OT      -0.834000       15.9994           0
     42310 TIP3     6667     TIP3     H1       HT       0.417000       1.00800           0
     42311 TIP3     6667     TIP3     H2       HT       0.417000       1.00800           0
     42312 TIP3     6668     TIP3     OH2      OT      -0.834000       15.9994           0
     42313 TIP3     6668     TIP3     H1       HT       0.417000       1.00800           0
     42314 TIP3     6668     TIP3     H2       HT       0.417000       1.00800           0
     42315 TIP3     6669     TIP3     OH2      OT      -0.834000       15.9994           0
     42316 TIP3     6669     TIP3     H1       HT       0.417000       1.00800           0
     42317 TIP3     6669     TIP3     H2       HT       0.417000       1.00800           0
     42318 TIP3     6670     TIP3     OH2      OT      -0.834000       15.9994           0
     42319 TIP3     6670     TIP3     H1       HT       0.417000       1.00800           0
     42320 TIP3     6670     TIP3     H2       HT       0.417000       1.00800           0
     42321 TIP3     6671     TIP3     OH2      OT      -0.834000       15.9994           0
     42322 TIP3     6671     TIP3     H1       HT       0.417000       1.00800           0
     42323 TIP3     6671     TIP3     H2       HT       0.417000       1.00800           0
     42324 TIP3     6672     TIP3     OH2      OT      -0.834000       15.9994           0
     42325 TIP3     6672     TIP3     H1       HT       0.417000       1.00800           0
     42326 TIP3     6672     TIP3     H2       HT       0.417000       1.00800           0
     42327 TIP3     6673     TIP3     OH2      OT      -0.834000       15.9994           0
     42328 TIP3     6673     TIP3     H1       HT       0.417000       1.00800           0
     42329 TIP3     6673     TIP3     H2       HT       0.417000       1.00800           0
     42330 TIP3     6674     TIP3     OH2      OT      -0.834000       15.9994           0
     42331 TIP3     6674     TIP3     H1       HT       0.417000       1.00800           0
     42332 TIP3     6674     TIP3     H2       HT       0.417000       1.00800           0
     42333 TIP3     6675     TIP3     OH2      OT      -0.834000       15.9994           0
     42334 TIP3     6675     TIP3     H1       HT       0.417000       1.00800           0
     42335 TIP3     6675     TIP3     H2       HT       0.417000       1.00800           0
     42336 TIP3     6676     TIP3     OH2      OT      -0.834000       15.9994           0
     42337 TIP3     6676     TIP3     H1       HT       0.417000       1.00800           0
     42338 TIP3     6676     TIP3     H2       HT       0.417000       1.00800           0
     42339 TIP3     6677     TIP3     OH2      OT      -0.834000       15.9994           0
     42340 TIP3     6677     TIP3     H1       HT       0.417000       1.00800           0
     42341 TIP3     6677     TIP3     H2       HT       0.417000       1.00800           0
     42342 TIP3     6678     TIP3     OH2      OT      -0.834000       15.9994           0
     42343 TIP3     6678     TIP3     H1       HT       0.417000       1.00800           0
     42344 TIP3     6678     TIP3     H2       HT       0.417000       1.00800           0
     42345 TIP3     6679     TIP3     OH2      OT      -0.834000       15.9994           0
     42346 TIP3     6679     TIP3     H1       HT       0.417000       1.00800           0
     42347 TIP3     6679     TIP3     H2       HT       0.417000       1.00800           0
     42348 TIP3     6680     TIP3     OH2      OT      -0.834000       15.9994           0
     42349 TIP3     6680     TIP3     H1       HT       0.417000       1.00800           0
     42350 TIP3     6680     TIP3     H2       HT       0.417000       1.00800           0
     42351 TIP3     6681     TIP3     OH2      OT      -0.834000       15.9994           0
     42352 TIP3     6681     TIP3     H1       HT       0.417000       1.00800           0
     42353 TIP3     6681     TIP3     H2       HT       0.417000       1.00800           0
     42354 TIP3     6682     TIP3     OH2      OT      -0.834000       15.9994           0
     42355 TIP3     6682     TIP3     H1       HT       0.417000       1.00800           0
     42356 TIP3     6682     TIP3     H2       HT       0.417000       1.00800           0
     42357 TIP3     6683     TIP3     OH2      OT      -0.834000       15.9994           0
     42358 TIP3     6683     TIP3     H1       HT       0.417000       1.00800           0
     42359 TIP3     6683     TIP3     H2       HT       0.417000       1.00800           0
     42360 TIP3     6684     TIP3     OH2      OT      -0.834000       15.9994           0
     42361 TIP3     6684     TIP3     H1       HT       0.417000       1.00800           0
     42362 TIP3     6684     TIP3     H2       HT       0.417000       1.00800           0
     42363 TIP3     6685     TIP3     OH2      OT      -0.834000       15.9994           0
     42364 TIP3     6685     TIP3     H1       HT       0.417000       1.00800           0
     42365 TIP3     6685     TIP3     H2       HT       0.417000       1.00800           0
     42366 TIP3     6686     TIP3     OH2      OT      -0.834000       15.9994           0
     42367 TIP3     6686     TIP3     H1       HT       0.417000       1.00800           0
     42368 TIP3     6686     TIP3     H2       HT       0.417000       1.00800           0
     42369 TIP3     6687     TIP3     OH2      OT      -0.834000       15.9994           0
     42370 TIP3     6687     TIP3     H1       HT       0.417000       1.00800           0
     42371 TIP3     6687     TIP3     H2       HT       0.417000       1.00800           0
     42372 TIP3     6688     TIP3     OH2      OT      -0.834000       15.9994           0
     42373 TIP3     6688     TIP3     H1       HT       0.417000       1.00800           0
     42374 TIP3     6688     TIP3     H2       HT       0.417000       1.00800           0
     42375 TIP3     6689     TIP3     OH2      OT      -0.834000       15.9994           0
     42376 TIP3     6689     TIP3     H1       HT       0.417000       1.00800           0
     42377 TIP3     6689     TIP3     H2       HT       0.417000       1.00800           0
     42378 TIP3     6690     TIP3     OH2      OT      -0.834000       15.9994           0
     42379 TIP3     6690     TIP3     H1       HT       0.417000       1.00800           0
     42380 TIP3     6690     TIP3     H2       HT       0.417000       1.00800           0
     42381 TIP3     6691     TIP3     OH2      OT      -0.834000       15.9994           0
     42382 TIP3     6691     TIP3     H1       HT       0.417000       1.00800           0
     42383 TIP3     6691     TIP3     H2       HT       0.417000       1.00800           0
     42384 TIP3     6692     TIP3     OH2      OT      -0.834000       15.9994           0
     42385 TIP3     6692     TIP3     H1       HT       0.417000       1.00800           0
     42386 TIP3     6692     TIP3     H2       HT       0.417000       1.00800           0
     42387 TIP3     6693     TIP3     OH2      OT      -0.834000       15.9994           0
     42388 TIP3     6693     TIP3     H1       HT       0.417000       1.00800           0
     42389 TIP3     6693     TIP3     H2       HT       0.417000       1.00800           0
     42390 TIP3     6694     TIP3     OH2      OT      -0.834000       15.9994           0
     42391 TIP3     6694     TIP3     H1       HT       0.417000       1.00800           0
     42392 TIP3     6694     TIP3     H2       HT       0.417000       1.00800           0
     42393 TIP3     6695     TIP3     OH2      OT      -0.834000       15.9994           0
     42394 TIP3     6695     TIP3     H1       HT       0.417000       1.00800           0
     42395 TIP3     6695     TIP3     H2       HT       0.417000       1.00800           0
     42396 TIP3     6696     TIP3     OH2      OT      -0.834000       15.9994           0
     42397 TIP3     6696     TIP3     H1       HT       0.417000       1.00800           0
     42398 TIP3     6696     TIP3     H2       HT       0.417000       1.00800           0
     42399 TIP3     6697     TIP3     OH2      OT      -0.834000       15.9994           0
     42400 TIP3     6697     TIP3     H1       HT       0.417000       1.00800           0
     42401 TIP3     6697     TIP3     H2       HT       0.417000       1.00800           0
     42402 TIP3     6698     TIP3     OH2      OT      -0.834000       15.9994           0
     42403 TIP3     6698     TIP3     H1       HT       0.417000       1.00800           0
     42404 TIP3     6698     TIP3     H2       HT       0.417000       1.00800           0
     42405 TIP3     6699     TIP3     OH2      OT      -0.834000       15.9994           0
     42406 TIP3     6699     TIP3     H1       HT       0.417000       1.00800           0
     42407 TIP3     6699     TIP3     H2       HT       0.417000       1.00800           0
     42408 TIP3     6700     TIP3     OH2      OT      -0.834000       15.9994           0
     42409 TIP3     6700     TIP3     H1       HT       0.417000       1.00800           0
     42410 TIP3     6700     TIP3     H2       HT       0.417000       1.00800           0
     42411 TIP3     6701     TIP3     OH2      OT      -0.834000       15.9994           0
     42412 TIP3     6701     TIP3     H1       HT       0.417000       1.00800           0
     42413 TIP3     6701     TIP3     H2       HT       0.417000       1.00800           0
     42414 TIP3     6702     TIP3     OH2      OT      -0.834000       15.9994           0
     42415 TIP3     6702     TIP3     H1       HT       0.417000       1.00800           0
     42416 TIP3     6702     TIP3     H2       HT       0.417000       1.00800           0
     42417 TIP3     6703     TIP3     OH2      OT      -0.834000       15.9994           0
     42418 TIP3     6703     TIP3     H1       HT       0.417000       1.00800           0
     42419 TIP3     6703     TIP3     H2       HT       0.417000       1.00800           0
     42420 TIP3     6704     TIP3     OH2      OT      -0.834000       15.9994           0
     42421 TIP3     6704     TIP3     H1       HT       0.417000       1.00800           0
     42422 TIP3     6704     TIP3     H2       HT       0.417000       1.00800           0
     42423 TIP3     6705     TIP3     OH2      OT      -0.834000       15.9994           0
     42424 TIP3     6705     TIP3     H1       HT       0.417000       1.00800           0
     42425 TIP3     6705     TIP3     H2       HT       0.417000       1.00800           0
     42426 TIP3     6706     TIP3     OH2      OT      -0.834000       15.9994           0
     42427 TIP3     6706     TIP3     H1       HT       0.417000       1.00800           0
     42428 TIP3     6706     TIP3     H2       HT       0.417000       1.00800           0
     42429 TIP3     6707     TIP3     OH2      OT      -0.834000       15.9994           0
     42430 TIP3     6707     TIP3     H1       HT       0.417000       1.00800           0
     42431 TIP3     6707     TIP3     H2       HT       0.417000       1.00800           0
     42432 TIP3     6708     TIP3     OH2      OT      -0.834000       15.9994           0
     42433 TIP3     6708     TIP3     H1       HT       0.417000       1.00800           0
     42434 TIP3     6708     TIP3     H2       HT       0.417000       1.00800           0
     42435 TIP3     6709     TIP3     OH2      OT      -0.834000       15.9994           0
     42436 TIP3     6709     TIP3     H1       HT       0.417000       1.00800           0
     42437 TIP3     6709     TIP3     H2       HT       0.417000       1.00800           0
     42438 TIP3     6710     TIP3     OH2      OT      -0.834000       15.9994           0
     42439 TIP3     6710     TIP3     H1       HT       0.417000       1.00800           0
     42440 TIP3     6710     TIP3     H2       HT       0.417000       1.00800           0
     42441 TIP3     6711     TIP3     OH2      OT      -0.834000       15.9994           0
     42442 TIP3     6711     TIP3     H1       HT       0.417000       1.00800           0
     42443 TIP3     6711     TIP3     H2       HT       0.417000       1.00800           0
     42444 TIP3     6712     TIP3     OH2      OT      -0.834000       15.9994           0
     42445 TIP3     6712     TIP3     H1       HT       0.417000       1.00800           0
     42446 TIP3     6712     TIP3     H2       HT       0.417000       1.00800           0
     42447 TIP3     6713     TIP3     OH2      OT      -0.834000       15.9994           0
     42448 TIP3     6713     TIP3     H1       HT       0.417000       1.00800           0
     42449 TIP3     6713     TIP3     H2       HT       0.417000       1.00800           0
     42450 TIP3     6714     TIP3     OH2      OT      -0.834000       15.9994           0
     42451 TIP3     6714     TIP3     H1       HT       0.417000       1.00800           0
     42452 TIP3     6714     TIP3     H2       HT       0.417000       1.00800           0
     42453 TIP3     6715     TIP3     OH2      OT      -0.834000       15.9994           0
     42454 TIP3     6715     TIP3     H1       HT       0.417000       1.00800           0
     42455 TIP3     6715     TIP3     H2       HT       0.417000       1.00800           0
     42456 TIP3     6716     TIP3     OH2      OT      -0.834000       15.9994           0
     42457 TIP3     6716     TIP3     H1       HT       0.417000       1.00800           0
     42458 TIP3     6716     TIP3     H2       HT       0.417000       1.00800           0
     42459 TIP3     6717     TIP3     OH2      OT      -0.834000       15.9994           0
     42460 TIP3     6717     TIP3     H1       HT       0.417000       1.00800           0
     42461 TIP3     6717     TIP3     H2       HT       0.417000       1.00800           0
     42462 TIP3     6718     TIP3     OH2      OT      -0.834000       15.9994           0
     42463 TIP3     6718     TIP3     H1       HT       0.417000       1.00800           0
     42464 TIP3     6718     TIP3     H2       HT       0.417000       1.00800           0
     42465 TIP3     6719     TIP3     OH2      OT      -0.834000       15.9994           0
     42466 TIP3     6719     TIP3     H1       HT       0.417000       1.00800           0
     42467 TIP3     6719     TIP3     H2       HT       0.417000       1.00800           0
     42468 TIP3     6720     TIP3     OH2      OT      -0.834000       15.9994           0
     42469 TIP3     6720     TIP3     H1       HT       0.417000       1.00800           0
     42470 TIP3     6720     TIP3     H2       HT       0.417000       1.00800           0
     42471 TIP3     6721     TIP3     OH2      OT      -0.834000       15.9994           0
     42472 TIP3     6721     TIP3     H1       HT       0.417000       1.00800           0
     42473 TIP3     6721     TIP3     H2       HT       0.417000       1.00800           0
     42474 TIP3     6722     TIP3     OH2      OT      -0.834000       15.9994           0
     42475 TIP3     6722     TIP3     H1       HT       0.417000       1.00800           0
     42476 TIP3     6722     TIP3     H2       HT       0.417000       1.00800           0
     42477 TIP3     6723     TIP3     OH2      OT      -0.834000       15.9994           0
     42478 TIP3     6723     TIP3     H1       HT       0.417000       1.00800           0
     42479 TIP3     6723     TIP3     H2       HT       0.417000       1.00800           0
     42480 TIP3     6724     TIP3     OH2      OT      -0.834000       15.9994           0
     42481 TIP3     6724     TIP3     H1       HT       0.417000       1.00800           0
     42482 TIP3     6724     TIP3     H2       HT       0.417000       1.00800           0
     42483 TIP3     6725     TIP3     OH2      OT      -0.834000       15.9994           0
     42484 TIP3     6725     TIP3     H1       HT       0.417000       1.00800           0
     42485 TIP3     6725     TIP3     H2       HT       0.417000       1.00800           0
     42486 TIP3     6726     TIP3     OH2      OT      -0.834000       15.9994           0
     42487 TIP3     6726     TIP3     H1       HT       0.417000       1.00800           0
     42488 TIP3     6726     TIP3     H2       HT       0.417000       1.00800           0
     42489 TIP3     6727     TIP3     OH2      OT      -0.834000       15.9994           0
     42490 TIP3     6727     TIP3     H1       HT       0.417000       1.00800           0
     42491 TIP3     6727     TIP3     H2       HT       0.417000       1.00800           0
     42492 TIP3     6728     TIP3     OH2      OT      -0.834000       15.9994           0
     42493 TIP3     6728     TIP3     H1       HT       0.417000       1.00800           0
     42494 TIP3     6728     TIP3     H2       HT       0.417000       1.00800           0
     42495 TIP3     6729     TIP3     OH2      OT      -0.834000       15.9994           0
     42496 TIP3     6729     TIP3     H1       HT       0.417000       1.00800           0
     42497 TIP3     6729     TIP3     H2       HT       0.417000       1.00800           0
     42498 TIP3     6730     TIP3     OH2      OT      -0.834000       15.9994           0
     42499 TIP3     6730     TIP3     H1       HT       0.417000       1.00800           0
     42500 TIP3     6730     TIP3     H2       HT       0.417000       1.00800           0
     42501 TIP3     6731     TIP3     OH2      OT      -0.834000       15.9994           0
     42502 TIP3     6731     TIP3     H1       HT       0.417000       1.00800           0
     42503 TIP3     6731     TIP3     H2       HT       0.417000       1.00800           0
     42504 TIP3     6732     TIP3     OH2      OT      -0.834000       15.9994           0
     42505 TIP3     6732     TIP3     H1       HT       0.417000       1.00800           0
     42506 TIP3     6732     TIP3     H2       HT       0.417000       1.00800           0
     42507 TIP3     6733     TIP3     OH2      OT      -0.834000       15.9994           0
     42508 TIP3     6733     TIP3     H1       HT       0.417000       1.00800           0
     42509 TIP3     6733     TIP3     H2       HT       0.417000       1.00800           0
     42510 TIP3     6734     TIP3     OH2      OT      -0.834000       15.9994           0
     42511 TIP3     6734     TIP3     H1       HT       0.417000       1.00800           0
     42512 TIP3     6734     TIP3     H2       HT       0.417000       1.00800           0
     42513 TIP3     6735     TIP3     OH2      OT      -0.834000       15.9994           0
     42514 TIP3     6735     TIP3     H1       HT       0.417000       1.00800           0
     42515 TIP3     6735     TIP3     H2       HT       0.417000       1.00800           0
     42516 TIP3     6736     TIP3     OH2      OT      -0.834000       15.9994           0
     42517 TIP3     6736     TIP3     H1       HT       0.417000       1.00800           0
     42518 TIP3     6736     TIP3     H2       HT       0.417000       1.00800           0
     42519 TIP3     6737     TIP3     OH2      OT      -0.834000       15.9994           0
     42520 TIP3     6737     TIP3     H1       HT       0.417000       1.00800           0
     42521 TIP3     6737     TIP3     H2       HT       0.417000       1.00800           0
     42522 TIP3     6738     TIP3     OH2      OT      -0.834000       15.9994           0
     42523 TIP3     6738     TIP3     H1       HT       0.417000       1.00800           0
     42524 TIP3     6738     TIP3     H2       HT       0.417000       1.00800           0
     42525 TIP3     6739     TIP3     OH2      OT      -0.834000       15.9994           0
     42526 TIP3     6739     TIP3     H1       HT       0.417000       1.00800           0
     42527 TIP3     6739     TIP3     H2       HT       0.417000       1.00800           0
     42528 TIP3     6740     TIP3     OH2      OT      -0.834000       15.9994           0
     42529 TIP3     6740     TIP3     H1       HT       0.417000       1.00800           0
     42530 TIP3     6740     TIP3     H2       HT       0.417000       1.00800           0
     42531 TIP3     6741     TIP3     OH2      OT      -0.834000       15.9994           0
     42532 TIP3     6741     TIP3     H1       HT       0.417000       1.00800           0
     42533 TIP3     6741     TIP3     H2       HT       0.417000       1.00800           0
     42534 TIP3     6742     TIP3     OH2      OT      -0.834000       15.9994           0
     42535 TIP3     6742     TIP3     H1       HT       0.417000       1.00800           0
     42536 TIP3     6742     TIP3     H2       HT       0.417000       1.00800           0
     42537 TIP3     6743     TIP3     OH2      OT      -0.834000       15.9994           0
     42538 TIP3     6743     TIP3     H1       HT       0.417000       1.00800           0
     42539 TIP3     6743     TIP3     H2       HT       0.417000       1.00800           0
     42540 TIP3     6744     TIP3     OH2      OT      -0.834000       15.9994           0
     42541 TIP3     6744     TIP3     H1       HT       0.417000       1.00800           0
     42542 TIP3     6744     TIP3     H2       HT       0.417000       1.00800           0
     42543 TIP3     6745     TIP3     OH2      OT      -0.834000       15.9994           0
     42544 TIP3     6745     TIP3     H1       HT       0.417000       1.00800           0
     42545 TIP3     6745     TIP3     H2       HT       0.417000       1.00800           0
     42546 TIP3     6746     TIP3     OH2      OT      -0.834000       15.9994           0
     42547 TIP3     6746     TIP3     H1       HT       0.417000       1.00800           0
     42548 TIP3     6746     TIP3     H2       HT       0.417000       1.00800           0
     42549 TIP3     6747     TIP3     OH2      OT      -0.834000       15.9994           0
     42550 TIP3     6747     TIP3     H1       HT       0.417000       1.00800           0
     42551 TIP3     6747     TIP3     H2       HT       0.417000       1.00800           0
     42552 TIP3     6748     TIP3     OH2      OT      -0.834000       15.9994           0
     42553 TIP3     6748     TIP3     H1       HT       0.417000       1.00800           0
     42554 TIP3     6748     TIP3     H2       HT       0.417000       1.00800           0
     42555 TIP3     6749     TIP3     OH2      OT      -0.834000       15.9994           0
     42556 TIP3     6749     TIP3     H1       HT       0.417000       1.00800           0
     42557 TIP3     6749     TIP3     H2       HT       0.417000       1.00800           0
     42558 TIP3     6750     TIP3     OH2      OT      -0.834000       15.9994           0
     42559 TIP3     6750     TIP3     H1       HT       0.417000       1.00800           0
     42560 TIP3     6750     TIP3     H2       HT       0.417000       1.00800           0
     42561 TIP3     6751     TIP3     OH2      OT      -0.834000       15.9994           0
     42562 TIP3     6751     TIP3     H1       HT       0.417000       1.00800           0
     42563 TIP3     6751     TIP3     H2       HT       0.417000       1.00800           0
     42564 TIP3     6752     TIP3     OH2      OT      -0.834000       15.9994           0
     42565 TIP3     6752     TIP3     H1       HT       0.417000       1.00800           0
     42566 TIP3     6752     TIP3     H2       HT       0.417000       1.00800           0
     42567 TIP3     6753     TIP3     OH2      OT      -0.834000       15.9994           0
     42568 TIP3     6753     TIP3     H1       HT       0.417000       1.00800           0
     42569 TIP3     6753     TIP3     H2       HT       0.417000       1.00800           0
     42570 TIP3     6754     TIP3     OH2      OT      -0.834000       15.9994           0
     42571 TIP3     6754     TIP3     H1       HT       0.417000       1.00800           0
     42572 TIP3     6754     TIP3     H2       HT       0.417000       1.00800           0
     42573 TIP3     6755     TIP3     OH2      OT      -0.834000       15.9994           0
     42574 TIP3     6755     TIP3     H1       HT       0.417000       1.00800           0
     42575 TIP3     6755     TIP3     H2       HT       0.417000       1.00800           0
     42576 TIP3     6756     TIP3     OH2      OT      -0.834000       15.9994           0
     42577 TIP3     6756     TIP3     H1       HT       0.417000       1.00800           0
     42578 TIP3     6756     TIP3     H2       HT       0.417000       1.00800           0
     42579 TIP3     6757     TIP3     OH2      OT      -0.834000       15.9994           0
     42580 TIP3     6757     TIP3     H1       HT       0.417000       1.00800           0
     42581 TIP3     6757     TIP3     H2       HT       0.417000       1.00800           0
     42582 TIP3     6758     TIP3     OH2      OT      -0.834000       15.9994           0
     42583 TIP3     6758     TIP3     H1       HT       0.417000       1.00800           0
     42584 TIP3     6758     TIP3     H2       HT       0.417000       1.00800           0
     42585 TIP3     6759     TIP3     OH2      OT      -0.834000       15.9994           0
     42586 TIP3     6759     TIP3     H1       HT       0.417000       1.00800           0
     42587 TIP3     6759     TIP3     H2       HT       0.417000       1.00800           0
     42588 TIP3     6760     TIP3     OH2      OT      -0.834000       15.9994           0
     42589 TIP3     6760     TIP3     H1       HT       0.417000       1.00800           0
     42590 TIP3     6760     TIP3     H2       HT       0.417000       1.00800           0
     42591 TIP3     6761     TIP3     OH2      OT      -0.834000       15.9994           0
     42592 TIP3     6761     TIP3     H1       HT       0.417000       1.00800           0
     42593 TIP3     6761     TIP3     H2       HT       0.417000       1.00800           0
     42594 TIP3     6762     TIP3     OH2      OT      -0.834000       15.9994           0
     42595 TIP3     6762     TIP3     H1       HT       0.417000       1.00800           0
     42596 TIP3     6762     TIP3     H2       HT       0.417000       1.00800           0
     42597 TIP3     6763     TIP3     OH2      OT      -0.834000       15.9994           0
     42598 TIP3     6763     TIP3     H1       HT       0.417000       1.00800           0
     42599 TIP3     6763     TIP3     H2       HT       0.417000       1.00800           0
     42600 TIP3     6764     TIP3     OH2      OT      -0.834000       15.9994           0
     42601 TIP3     6764     TIP3     H1       HT       0.417000       1.00800           0
     42602 TIP3     6764     TIP3     H2       HT       0.417000       1.00800           0
     42603 TIP3     6765     TIP3     OH2      OT      -0.834000       15.9994           0
     42604 TIP3     6765     TIP3     H1       HT       0.417000       1.00800           0
     42605 TIP3     6765     TIP3     H2       HT       0.417000       1.00800           0
     42606 TIP3     6766     TIP3     OH2      OT      -0.834000       15.9994           0
     42607 TIP3     6766     TIP3     H1       HT       0.417000       1.00800           0
     42608 TIP3     6766     TIP3     H2       HT       0.417000       1.00800           0
     42609 TIP3     6767     TIP3     OH2      OT      -0.834000       15.9994           0
     42610 TIP3     6767     TIP3     H1       HT       0.417000       1.00800           0
     42611 TIP3     6767     TIP3     H2       HT       0.417000       1.00800           0
     42612 TIP3     6768     TIP3     OH2      OT      -0.834000       15.9994           0
     42613 TIP3     6768     TIP3     H1       HT       0.417000       1.00800           0
     42614 TIP3     6768     TIP3     H2       HT       0.417000       1.00800           0
     42615 TIP3     6769     TIP3     OH2      OT      -0.834000       15.9994           0
     42616 TIP3     6769     TIP3     H1       HT       0.417000       1.00800           0
     42617 TIP3     6769     TIP3     H2       HT       0.417000       1.00800           0
     42618 TIP3     6770     TIP3     OH2      OT      -0.834000       15.9994           0
     42619 TIP3     6770     TIP3     H1       HT       0.417000       1.00800           0
     42620 TIP3     6770     TIP3     H2       HT       0.417000       1.00800           0
     42621 TIP3     6771     TIP3     OH2      OT      -0.834000       15.9994           0
     42622 TIP3     6771     TIP3     H1       HT       0.417000       1.00800           0
     42623 TIP3     6771     TIP3     H2       HT       0.417000       1.00800           0
     42624 TIP3     6772     TIP3     OH2      OT      -0.834000       15.9994           0
     42625 TIP3     6772     TIP3     H1       HT       0.417000       1.00800           0
     42626 TIP3     6772     TIP3     H2       HT       0.417000       1.00800           0
     42627 TIP3     6773     TIP3     OH2      OT      -0.834000       15.9994           0
     42628 TIP3     6773     TIP3     H1       HT       0.417000       1.00800           0
     42629 TIP3     6773     TIP3     H2       HT       0.417000       1.00800           0
     42630 TIP3     6774     TIP3     OH2      OT      -0.834000       15.9994           0
     42631 TIP3     6774     TIP3     H1       HT       0.417000       1.00800           0
     42632 TIP3     6774     TIP3     H2       HT       0.417000       1.00800           0
     42633 TIP3     6775     TIP3     OH2      OT      -0.834000       15.9994           0
     42634 TIP3     6775     TIP3     H1       HT       0.417000       1.00800           0
     42635 TIP3     6775     TIP3     H2       HT       0.417000       1.00800           0
     42636 TIP3     6776     TIP3     OH2      OT      -0.834000       15.9994           0
     42637 TIP3     6776     TIP3     H1       HT       0.417000       1.00800           0
     42638 TIP3     6776     TIP3     H2       HT       0.417000       1.00800           0
     42639 TIP3     6777     TIP3     OH2      OT      -0.834000       15.9994           0
     42640 TIP3     6777     TIP3     H1       HT       0.417000       1.00800           0
     42641 TIP3     6777     TIP3     H2       HT       0.417000       1.00800           0
     42642 TIP3     6778     TIP3     OH2      OT      -0.834000       15.9994           0
     42643 TIP3     6778     TIP3     H1       HT       0.417000       1.00800           0
     42644 TIP3     6778     TIP3     H2       HT       0.417000       1.00800           0
     42645 TIP3     6779     TIP3     OH2      OT      -0.834000       15.9994           0
     42646 TIP3     6779     TIP3     H1       HT       0.417000       1.00800           0
     42647 TIP3     6779     TIP3     H2       HT       0.417000       1.00800           0
     42648 TIP3     6780     TIP3     OH2      OT      -0.834000       15.9994           0
     42649 TIP3     6780     TIP3     H1       HT       0.417000       1.00800           0
     42650 TIP3     6780     TIP3     H2       HT       0.417000       1.00800           0
     42651 TIP3     6781     TIP3     OH2      OT      -0.834000       15.9994           0
     42652 TIP3     6781     TIP3     H1       HT       0.417000       1.00800           0
     42653 TIP3     6781     TIP3     H2       HT       0.417000       1.00800           0
     42654 TIP3     6782     TIP3     OH2      OT      -0.834000       15.9994           0
     42655 TIP3     6782     TIP3     H1       HT       0.417000       1.00800           0
     42656 TIP3     6782     TIP3     H2       HT       0.417000       1.00800           0
     42657 TIP3     6783     TIP3     OH2      OT      -0.834000       15.9994           0
     42658 TIP3     6783     TIP3     H1       HT       0.417000       1.00800           0
     42659 TIP3     6783     TIP3     H2       HT       0.417000       1.00800           0
     42660 TIP3     6784     TIP3     OH2      OT      -0.834000       15.9994           0
     42661 TIP3     6784     TIP3     H1       HT       0.417000       1.00800           0
     42662 TIP3     6784     TIP3     H2       HT       0.417000       1.00800           0
     42663 TIP3     6785     TIP3     OH2      OT      -0.834000       15.9994           0
     42664 TIP3     6785     TIP3     H1       HT       0.417000       1.00800           0
     42665 TIP3     6785     TIP3     H2       HT       0.417000       1.00800           0
     42666 TIP3     6786     TIP3     OH2      OT      -0.834000       15.9994           0
     42667 TIP3     6786     TIP3     H1       HT       0.417000       1.00800           0
     42668 TIP3     6786     TIP3     H2       HT       0.417000       1.00800           0
     42669 TIP3     6787     TIP3     OH2      OT      -0.834000       15.9994           0
     42670 TIP3     6787     TIP3     H1       HT       0.417000       1.00800           0
     42671 TIP3     6787     TIP3     H2       HT       0.417000       1.00800           0
     42672 TIP3     6788     TIP3     OH2      OT      -0.834000       15.9994           0
     42673 TIP3     6788     TIP3     H1       HT       0.417000       1.00800           0
     42674 TIP3     6788     TIP3     H2       HT       0.417000       1.00800           0
     42675 TIP3     6789     TIP3     OH2      OT      -0.834000       15.9994           0
     42676 TIP3     6789     TIP3     H1       HT       0.417000       1.00800           0
     42677 TIP3     6789     TIP3     H2       HT       0.417000       1.00800           0
     42678 TIP3     6790     TIP3     OH2      OT      -0.834000       15.9994           0
     42679 TIP3     6790     TIP3     H1       HT       0.417000       1.00800           0
     42680 TIP3     6790     TIP3     H2       HT       0.417000       1.00800           0
     42681 TIP3     6791     TIP3     OH2      OT      -0.834000       15.9994           0
     42682 TIP3     6791     TIP3     H1       HT       0.417000       1.00800           0
     42683 TIP3     6791     TIP3     H2       HT       0.417000       1.00800           0
     42684 TIP3     6792     TIP3     OH2      OT      -0.834000       15.9994           0
     42685 TIP3     6792     TIP3     H1       HT       0.417000       1.00800           0
     42686 TIP3     6792     TIP3     H2       HT       0.417000       1.00800           0
     42687 TIP3     6793     TIP3     OH2      OT      -0.834000       15.9994           0
     42688 TIP3     6793     TIP3     H1       HT       0.417000       1.00800           0
     42689 TIP3     6793     TIP3     H2       HT       0.417000       1.00800           0
     42690 TIP3     6794     TIP3     OH2      OT      -0.834000       15.9994           0
     42691 TIP3     6794     TIP3     H1       HT       0.417000       1.00800           0
     42692 TIP3     6794     TIP3     H2       HT       0.417000       1.00800           0
     42693 TIP3     6795     TIP3     OH2      OT      -0.834000       15.9994           0
     42694 TIP3     6795     TIP3     H1       HT       0.417000       1.00800           0
     42695 TIP3     6795     TIP3     H2       HT       0.417000       1.00800           0
     42696 TIP3     6796     TIP3     OH2      OT      -0.834000       15.9994           0
     42697 TIP3     6796     TIP3     H1       HT       0.417000       1.00800           0
     42698 TIP3     6796     TIP3     H2       HT       0.417000       1.00800           0
     42699 TIP3     6797     TIP3     OH2      OT      -0.834000       15.9994           0
     42700 TIP3     6797     TIP3     H1       HT       0.417000       1.00800           0
     42701 TIP3     6797     TIP3     H2       HT       0.417000       1.00800           0
     42702 TIP3     6798     TIP3     OH2      OT      -0.834000       15.9994           0
     42703 TIP3     6798     TIP3     H1       HT       0.417000       1.00800           0
     42704 TIP3     6798     TIP3     H2       HT       0.417000       1.00800           0
     42705 TIP3     6799     TIP3     OH2      OT      -0.834000       15.9994           0
     42706 TIP3     6799     TIP3     H1       HT       0.417000       1.00800           0
     42707 TIP3     6799     TIP3     H2       HT       0.417000       1.00800           0
     42708 TIP3     6800     TIP3     OH2      OT      -0.834000       15.9994           0
     42709 TIP3     6800     TIP3     H1       HT       0.417000       1.00800           0
     42710 TIP3     6800     TIP3     H2       HT       0.417000       1.00800           0
     42711 TIP3     6801     TIP3     OH2      OT      -0.834000       15.9994           0
     42712 TIP3     6801     TIP3     H1       HT       0.417000       1.00800           0
     42713 TIP3     6801     TIP3     H2       HT       0.417000       1.00800           0
     42714 TIP3     6802     TIP3     OH2      OT      -0.834000       15.9994           0
     42715 TIP3     6802     TIP3     H1       HT       0.417000       1.00800           0
     42716 TIP3     6802     TIP3     H2       HT       0.417000       1.00800           0
     42717 TIP3     6803     TIP3     OH2      OT      -0.834000       15.9994           0
     42718 TIP3     6803     TIP3     H1       HT       0.417000       1.00800           0
     42719 TIP3     6803     TIP3     H2       HT       0.417000       1.00800           0
     42720 TIP3     6804     TIP3     OH2      OT      -0.834000       15.9994           0
     42721 TIP3     6804     TIP3     H1       HT       0.417000       1.00800           0
     42722 TIP3     6804     TIP3     H2       HT       0.417000       1.00800           0
     42723 TIP3     6805     TIP3     OH2      OT      -0.834000       15.9994           0
     42724 TIP3     6805     TIP3     H1       HT       0.417000       1.00800           0
     42725 TIP3     6805     TIP3     H2       HT       0.417000       1.00800           0
     42726 TIP3     6806     TIP3     OH2      OT      -0.834000       15.9994           0
     42727 TIP3     6806     TIP3     H1       HT       0.417000       1.00800           0
     42728 TIP3     6806     TIP3     H2       HT       0.417000       1.00800           0
     42729 TIP3     6807     TIP3     OH2      OT      -0.834000       15.9994           0
     42730 TIP3     6807     TIP3     H1       HT       0.417000       1.00800           0
     42731 TIP3     6807     TIP3     H2       HT       0.417000       1.00800           0
     42732 TIP3     6808     TIP3     OH2      OT      -0.834000       15.9994           0
     42733 TIP3     6808     TIP3     H1       HT       0.417000       1.00800           0
     42734 TIP3     6808     TIP3     H2       HT       0.417000       1.00800           0
     42735 TIP3     6809     TIP3     OH2      OT      -0.834000       15.9994           0
     42736 TIP3     6809     TIP3     H1       HT       0.417000       1.00800           0
     42737 TIP3     6809     TIP3     H2       HT       0.417000       1.00800           0
     42738 TIP3     6810     TIP3     OH2      OT      -0.834000       15.9994           0
     42739 TIP3     6810     TIP3     H1       HT       0.417000       1.00800           0
     42740 TIP3     6810     TIP3     H2       HT       0.417000       1.00800           0
     42741 TIP3     6811     TIP3     OH2      OT      -0.834000       15.9994           0
     42742 TIP3     6811     TIP3     H1       HT       0.417000       1.00800           0
     42743 TIP3     6811     TIP3     H2       HT       0.417000       1.00800           0
     42744 TIP3     6812     TIP3     OH2      OT      -0.834000       15.9994           0
     42745 TIP3     6812     TIP3     H1       HT       0.417000       1.00800           0
     42746 TIP3     6812     TIP3     H2       HT       0.417000       1.00800           0
     42747 TIP3     6813     TIP3     OH2      OT      -0.834000       15.9994           0
     42748 TIP3     6813     TIP3     H1       HT       0.417000       1.00800           0
     42749 TIP3     6813     TIP3     H2       HT       0.417000       1.00800           0
     42750 TIP3     6814     TIP3     OH2      OT      -0.834000       15.9994           0
     42751 TIP3     6814     TIP3     H1       HT       0.417000       1.00800           0
     42752 TIP3     6814     TIP3     H2       HT       0.417000       1.00800           0
     42753 TIP3     6815     TIP3     OH2      OT      -0.834000       15.9994           0
     42754 TIP3     6815     TIP3     H1       HT       0.417000       1.00800           0
     42755 TIP3     6815     TIP3     H2       HT       0.417000       1.00800           0
     42756 TIP3     6816     TIP3     OH2      OT      -0.834000       15.9994           0
     42757 TIP3     6816     TIP3     H1       HT       0.417000       1.00800           0
     42758 TIP3     6816     TIP3     H2       HT       0.417000       1.00800           0
     42759 TIP3     6817     TIP3     OH2      OT      -0.834000       15.9994           0
     42760 TIP3     6817     TIP3     H1       HT       0.417000       1.00800           0
     42761 TIP3     6817     TIP3     H2       HT       0.417000       1.00800           0
     42762 TIP3     6818     TIP3     OH2      OT      -0.834000       15.9994           0
     42763 TIP3     6818     TIP3     H1       HT       0.417000       1.00800           0
     42764 TIP3     6818     TIP3     H2       HT       0.417000       1.00800           0
     42765 TIP3     6819     TIP3     OH2      OT      -0.834000       15.9994           0
     42766 TIP3     6819     TIP3     H1       HT       0.417000       1.00800           0
     42767 TIP3     6819     TIP3     H2       HT       0.417000       1.00800           0
     42768 TIP3     6820     TIP3     OH2      OT      -0.834000       15.9994           0
     42769 TIP3     6820     TIP3     H1       HT       0.417000       1.00800           0
     42770 TIP3     6820     TIP3     H2       HT       0.417000       1.00800           0
     42771 TIP3     6821     TIP3     OH2      OT      -0.834000       15.9994           0
     42772 TIP3     6821     TIP3     H1       HT       0.417000       1.00800           0
     42773 TIP3     6821     TIP3     H2       HT       0.417000       1.00800           0
     42774 TIP3     6822     TIP3     OH2      OT      -0.834000       15.9994           0
     42775 TIP3     6822     TIP3     H1       HT       0.417000       1.00800           0
     42776 TIP3     6822     TIP3     H2       HT       0.417000       1.00800           0
     42777 TIP3     6823     TIP3     OH2      OT      -0.834000       15.9994           0
     42778 TIP3     6823     TIP3     H1       HT       0.417000       1.00800           0
     42779 TIP3     6823     TIP3     H2       HT       0.417000       1.00800           0
     42780 TIP3     6824     TIP3     OH2      OT      -0.834000       15.9994           0
     42781 TIP3     6824     TIP3     H1       HT       0.417000       1.00800           0
     42782 TIP3     6824     TIP3     H2       HT       0.417000       1.00800           0
     42783 TIP3     6825     TIP3     OH2      OT      -0.834000       15.9994           0
     42784 TIP3     6825     TIP3     H1       HT       0.417000       1.00800           0
     42785 TIP3     6825     TIP3     H2       HT       0.417000       1.00800           0
     42786 TIP3     6826     TIP3     OH2      OT      -0.834000       15.9994           0
     42787 TIP3     6826     TIP3     H1       HT       0.417000       1.00800           0
     42788 TIP3     6826     TIP3     H2       HT       0.417000       1.00800           0
     42789 TIP3     6827     TIP3     OH2      OT      -0.834000       15.9994           0
     42790 TIP3     6827     TIP3     H1       HT       0.417000       1.00800           0
     42791 TIP3     6827     TIP3     H2       HT       0.417000       1.00800           0
     42792 TIP3     6828     TIP3     OH2      OT      -0.834000       15.9994           0
     42793 TIP3     6828     TIP3     H1       HT       0.417000       1.00800           0
     42794 TIP3     6828     TIP3     H2       HT       0.417000       1.00800           0

     42772 !NBOND: bonds
         1         2         1         3         1         4         1         5
         9         7         7         5         7         8         5         6
         5        10        18        17        10        11        10        12
        10        16        16        13        13        17        13        14
        13        15        18        19        18        20        18        21
        21        22        21        29        21        23        29        30
        29        31        29        32        23        24        24        26
        24        25        26        27        26        28        26        38
        38        39        38        40        38        41        41        42
        41        43        41        44        44        45        44        46
        46        47        46        48        48        49        48        50
        48        51        51        52        51        53        53        54
        53        55        55        56        55        57        55        58
        58        59        58        60        60        61        60        62
        62        63        62        64        62        65        65        66
        65        67        67        68        67        69        69        70
        69        71        69        72        72        73        72        74
        72        75        75        76        75        77        75        78
        78        79        78        80        78        81        81        82
        81        83        81        84        32        33        33        35
        33        34        35        36        35        37        35        85
        85        86        85        87        85        88        88        89
        88        90        88        91        91        92        91        93
        91        94        94        95        94        96        94        97
        97        98        97        99        97       100       100       101
       100       102       100       103       103       104       103       105
       103       106       106       107       106       108       106       109
       109       110       109       111       109       112       112       113
       112       114       112       115       115       116       115       117
       115       118       118       119       118       120       118       121
       121       122       121       123       121       124       124       125
       124       126       124       127       127       128       127       129
       127       130       130       131       130       132       130       133
      2661      2663      2661      2662      2663      2664      2661      2707
      2707      2708      2707      2709      2707      2704      2704      2705
      2704      2706      2661      2665      2665      2666      2665      2667
      2665      2668      2668      2699      2699      2704      2699      2700
      2700      2701      2700      2702      2700      2703      2668      2669
      2669      2670      2669      2671      2671      2672      2671      2673
      2671      2674      2674      2675      2674      2697      2697      2698
      2697      2699      2674      2676      2676      2677      2676      2686
      2686      2691      2691      2692      2691      2693      2691      2694
      2694      2695      2694      2696      2694      2697      2686      2687
      2687      2688      2687      2689      2687      2690      2676      2678
      2678      2679      2678      2680      2678      2681      2681      2682
      2681      2683      2681      2684      2684      2685      2684      2686
      2684      2710      2710      2711      2710      2712      2712      2713
      2712      2714      2712      2715      2710      2716      2716      2717
      2716      2718      2716      2719      2719      2720      2719      2721
      2719      2722      2722      2723      2722      2724      2722      2725
      2725      2726      2725      2727      2727      2728      2727      2729
      2727      2730      2725      2731      2731      2732      2731      2733
      2731      2734      6805      6806      6805      6807      6805      6808
      6805      6809      6809      6810      6809      6811      6809      6812
      6812      6813      6812      6814      6812      6818      6820      6819
      6818      6815      6815      6819      6815      6816      6815      6817
      6820      6821      6820      6822      6820      6823      6823      6824
      6823      6831      6823      6825      6831      6832      6831      6833
      6831      6834      6825      6826      6826      6828      6826      6827
      6828      6829      6828      6830      6828      6840      6840      6841
      6840      6842      6840      6843      6843      6844      6843      6845
      6843      6846      6846      6847      6846      6848      6846      6849
      6849      6850      6849      6851      6849      6852      6852      6853
      6852      6854      6852      6855      6855      6856      6855      6857
      6855      6858      6858      6859      6858      6860      6860      6861
      6860      6862      6862      6863      6862      6864      6862      6865
      6865      6866      6865      6867      6865      6868      6868      6869
      6868      6870      6868      6871      6871      6872      6871      6873
      6871      6874      6874      6875      6874      6876      6874      6877
      6877      6878      6877      6879      6877      6880      6880      6881
      6880      6882      6880      6883      6883      6884      6883      6885
      6883      6886      6834      6835      6835      6837      6835      6836
      6837      6838      6837      6839      6837      6887      6887      6888
      6887      6889      6887      6890      6890      6891      6890      6892
      6890      6893      6893      6894      6893      6895      6893      6896
      6896      6897      6896      6898      6896      6899      6899      6900
      6899      6901      6899      6902      6902      6903      6902      6904
      6902      6905      6905      6906      6905      6907      6905      6908
      6908      6909      6908      6910      6908      6911      6911      6912
      6911      6913      6911      6914      6914      6915      6914      6916
      6914      6917      6917      6918      6917      6919      6917      6920
      6920      6921      6920      6922      6920      6923      6923      6924
      6923      6925      6923      6926      6926      6927      6926      6928
      6926      6929      6929      6930      6929      6931      6929      6932
      6932      6933      6932      6934      6932      6935      2735      2737
      2735      2736      2737      2738      2735      2781      2781      2782
      2781      2783      2781      2778      2778      2779      2778      2780
      2735      2739      2739      2740      2739      2741      2739      2742
      2742      2773      2773      2778      2773      2774      2774      2775
      2774      2776      2774      2777      2742      2743      2743      2744
      2743      2745      2745      2746      2745      2747      2745      2748
      2748      2749      2748      2771      2771      2772      2771      2773
      2748      2750      2750      2751      2750      2760      2760      2765
      2765      2766      2765      2767      2765      2768      2768      2769
      2768      2770      2768      2771      2760      2761      2761      2762
      2761      2763      2761      2764      2750      2752      2752      2753
      2752      2754      2752      2755      2755      2756      2755      2757
      2755      2758      2758      2759      2758      2760      2758      2784
      2784      2785      2784      2786      2786      2787      2786      2788
      2786      2789      2784      2790      2790      2791      2790      2792
      2790      2793      2793      2794      2793      2795      2793      2796
      2796      2797      2796      2798      2796      2799      2799      2800
      2799      2801      2801      2802      2801      2803      2801      2804
      2799      2805      2805      2806      2805      2807      2805      2808
      8377      8381      8377      8385      8377      8389      8381      8382
      8381      8383      8381      8384      8385      8386      8385      8387
      8385      8388      8389      8390      8389      8391      8389      8392
      8377      8378      8378      8379      8378      8380      8378      8393
      8393      8394      8393      8395      8393      8399      8400      8401
      8399      8396      8396      8400      8396      8397      8396      8398
      8401      8402      8401      8403      8401      8404      8404      8405
      8404      8412      8404      8406      8412      8413      8412      8414
      8412      8415      8406      8407      8407      8409      8407      8408
      8409      8410      8409      8411      8409      8421      8421      8422
      8421      8423      8421      8424      8424      8425      8424      8426
      8424      8427      8427      8428      8427      8429      8429      8430
      8429      8431      8431      8432      8431      8433      8431      8434
      8434      8435      8434      8436      8436      8437      8436      8438
      8438      8439      8438      8440      8438      8441      8441      8442
      8441      8443      8443      8444      8443      8445      8445      8446
      8445      8447      8445      8448      8448      8449      8448      8450
      8450      8451      8450      8452      8452      8453      8452      8454
      8452      8455      8455      8456      8455      8457      8455      8458
      8458      8459      8458      8460      8458      8461      8461      8462
      8461      8463      8461      8464      8464      8465      8464      8466
      8464      8467      8415      8416      8416      8418      8416      8417
      8418      8419      8418      8420      8418      8468      8468      8469
      8468      8470      8468      8471      8471      8472      8471      8473
      8471      8474      8474      8475      8474      8476      8474      8477
      8477      8478      8477      8479      8477      8480      8480      8481
      8480      8482      8480      8483      8483      8484      8483      8485
      8483      8486      8486      8487      8486      8488      8486      8489
      8489      8490      8489      8491      8489      8492      8492      8493
      8492      8494      8492      8495      8495      8496      8495      8497
      8495      8498      8498      8499      8498      8500      8498      8501
      8501      8502      8501      8503      8501      8504      8504      8505
      8504      8506      8504      8507      8507      8508      8507      8509
      8507      8510      8510      8511      8510      8512      8510      8513
      8513      8514      8513      8515      8513      8516     10132     10133
     10132     10134     10132     10135     10132     10129     10129     10130
     10129     10131     10129     10126     10126     10127     10126     10128
     10126     10123     10123     10124     10123     10125     10123     10120
     10120     10121     10120     10122     10120     10117     10117     10118
     10117     10119     10117     10114     10114     10115     10114     10116
     10114     10111     10111     10112     10111     10113     10111     10108
     10108     10109     10108     10110     10108     10105     10105     10106
     10105     10107     10105     10102     10102     10103     10102     10104
     10102     10099     10099     10100     10099     10101     10099     10096
     10096     10097     10096     10098     10096     10094     10094     10095
     10092     10093     10092     10088     10088     10089     10088     10090
     10090     10091     10088     10086     10086     10087     10086     10081
     10081     10082     10081     10083     10081     10079     10079     10076
     10080     10076     10077     10076     10078     10076     10080     10073
     10073     10074     10073     10075     10073     10070     10070     10071
     10070     10072     10070     10057     10057     10066     10057     10062
     10057     10058     10066     10067     10066     10068     10066     10069
     10062     10063     10062     10064     10062     10065     10058     10059
     10058     10060     10058     10061     10086     10084     10084     10085
     10084     10136     10136     10138     10138     10139     10138     10140
     10138     10141     10141     10142     10141     10143     10141     10144
     10144     10145     10144     10146     10144     10147     10147     10148
     10147     10149     10147     10150     10150     10151     10150     10152
     10150     10153     10153     10154     10153     10155     10153     10156
     10156     10157     10156     10158     10156     10159     10159     10160
     10161     10162     10161     10163     10163     10164     10163     10165
     10163     10166     10166     10167     10166     10168     10166     10169
     10169     10170     10169     10171     10169     10172     10172     10173
     10172     10174     10172     10175     10175     10176     10175     10177
     10175     10178     10178     10179     10178     10180     10178     10181
     10181     10182     10181     10183     10181     10184     10184     10185
     10184     10186     10184     10187     10092     10094     10159     10161
     10136     10137      2809      2811      2809      2810      2811      2812
      2809      2855      2855      2856      2855      2857      2855      2852
      2852      2853      2852      2854      2809      2813      2813      2814
      2813      2815      2813      2816      2816      2847      2847      2852
      2847      2848      2848      2849      2848      2850      2848      2851
      2816      2817      2817      2818      2817      2819      2819      2820
      2819      2821      2819      2822      2822      2823      2822      2845
      2845      2846      2845      2847      2822      2824      2824      2825
      2824      2834      2834      2839      2839      2840      2839      2841
      2839      2842      2842      2843      2842      2844      2842      2845
      2834      2835      2835      2836      2835      2837      2835      2838
      2824      2826      2826      2827      2826      2828      2826      2829
      2829      2830      2829      2831      2829      2832      2832      2833
      2832      2834      2832      2858      2858      2859      2858      2860
      2860      2861      2860      2862      2860      2863      2858      2864
      2864      2865      2864      2866      2864      2867      2867      2868
      2867      2869      2867      2870      2870      2871      2870      2872
      2870      2873      2873      2874      2873      2875      2875      2876
      2875      2877      2875      2878      2873      2879      2879      2880
      2879      2881      2879      2882      2883      2885      2883      2884
      2885      2886      2883      2929      2929      2930      2929      2931
      2929      2926      2926      2927      2926      2928      2883      2887
      2887      2888      2887      2889      2887      2890      2890      2921
      2921      2926      2921      2922      2922      2923      2922      2924
      2922      2925      2890      2891      2891      2892      2891      2893
      2893      2894      2893      2895      2893      2896      2896      2897
      2896      2919      2919      2920      2919      2921      2896      2898
      2898      2899      2898      2908      2908      2913      2913      2914
      2913      2915      2913      2916      2916      2917      2916      2918
      2916      2919      2908      2909      2909      2910      2909      2911
      2909      2912      2898      2900      2900      2901      2900      2902
      2900      2903      2903      2904      2903      2905      2903      2906
      2906      2907      2906      2908      2906      2932      2932      2933
      2932      2934      2934      2935      2934      2936      2934      2937
      2932      2938      2938      2939      2938      2940      2938      2941
      2941      2942      2941      2943      2941      2944      2944      2945
      2944      2946      2944      2947      2947      2948      2947      2949
      2949      2950      2949      2951      2949      2952      2947      2953
      2953      2954      2953      2955      2953      2956     10263     10264
     10263     10265     10263     10266     10263     10260     10260     10261
     10260     10262     10260     10257     10257     10258     10257     10259
     10257     10254     10254     10255     10254     10256     10254     10251
     10251     10252     10251     10253     10251     10248     10248     10249
     10248     10250     10248     10245     10245     10246     10245     10247
     10245     10242     10242     10243     10242     10244     10242     10239
     10239     10240     10239     10241     10239     10236     10236     10237
     10236     10238     10236     10233     10233     10234     10233     10235
     10233     10230     10230     10231     10230     10232     10230     10227
     10227     10228     10227     10229     10227     10225     10225     10226
     10223     10224     10223     10219     10219     10220     10219     10221
     10221     10222     10219     10217     10217     10218     10217     10212
     10212     10213     10212     10214     10212     10210     10210     10207
     10211     10207     10208     10207     10209     10207     10211     10204
     10204     10205     10204     10206     10204     10201     10201     10202
     10201     10203     10201     10188     10188     10197     10188     10193
     10188     10189     10197     10198     10197     10199     10197     10200
     10193     10194     10193     10195     10193     10196     10189     10190
     10189     10191     10189     10192     10217     10215     10215     10216
     10215     10267     10267     10269     10269     10270     10269     10271
     10269     10272     10272     10273     10272     10274     10272     10275
     10275     10276     10275     10277     10275     10278     10278     10279
     10278     10280     10278     10281     10281     10282     10281     10283
     10281     10284     10284     10285     10284     10286     10284     10287
     10287     10288     10287     10289     10287     10290     10290     10291
     10292     10293     10292     10294     10294     10295     10294     10296
     10294     10297     10297     10298     10297     10299     10297     10300
     10300     10301     10300     10302     10300     10303     10303     10304
     10303     10305     10303     10306     10306     10307     10306     10308
     10306     10309     10309     10310     10309     10311     10309     10312
     10312     10313     10312     10314     10312     10315     10315     10316
     10315     10317     10315     10318     10223     10225     10290     10292
     10267     10268      6936      6937      6936      6938      6936      6939
      6936      6940      6940      6941      6940      6942      6940      6943
      6943      6944      6943      6945      6943      6949      6951      6950
      6949      6946      6946      6950      6946      6947      6946      6948
      6951      6952      6951      6953      6951      6954      6954      6955
      6954      6962      6954      6956      6962      6963      6962      6964
      6962      6965      6956      6957      6957      6959      6957      6958
      6959      6960      6959      6961      6959      6971      6971      6972
      6971      6973      6971      6974      6974      6975      6974      6976
      6974      6977      6977      6978      6977      6979      6977      6980
      6980      6981      6980      6982      6980      6983      6983      6984
      6983      6985      6983      6986      6986      6987      6986      6988
      6986      6989      6989      6990      6989      6991      6991      6992
      6991      6993      6993      6994      6993      6995      6993      6996
      6996      6997      6996      6998      6996      6999      6999      7000
      6999      7001      6999      7002      7002      7003      7002      7004
      7002      7005      7005      7006      7005      7007      7005      7008
      7008      7009      7008      7010      7008      7011      7011      7012
      7011      7013      7011      7014      7014      7015      7014      7016
      7014      7017      6965      6966      6966      6968      6966      6967
      6968      6969      6968      6970      6968      7018      7018      7019
      7018      7020      7018      7021      7021      7022      7021      7023
      7021      7024      7024      7025      7024      7026      7024      7027
      7027      7028      7027      7029      7027      7030      7030      7031
      7030      7032      7030      7033      7033      7034      7033      7035
      7033      7036      7036      7037      7036      7038      7036      7039
      7039      7040      7039      7041      7039      7042      7042      7043
      7042      7044      7042      7045      7045      7046      7045      7047
      7045      7048      7048      7049      7048      7050      7048      7051
      7051      7052      7051      7053      7051      7054      7054      7055
      7054      7056      7054      7057      7057      7058      7057      7059
      7057      7060      7060      7061      7060      7062      7060      7063
      7063      7064      7063      7065      7063      7066     10394     10395
     10394     10396     10394     10397     10394     10391     10391     10392
     10391     10393     10391     10388     10388     10389     10388     10390
     10388     10385     10385     10386     10385     10387     10385     10382
     10382     10383     10382     10384     10382     10379     10379     10380
     10379     10381     10379     10376     10376     10377     10376     10378
     10376     10373     10373     10374     10373     10375     10373     10370
     10370     10371     10370     10372     10370     10367     10367     10368
     10367     10369     10367     10364     10364     10365     10364     10366
     10364     10361     10361     10362     10361     10363     10361     10358
     10358     10359     10358     10360     10358     10356     10356     10357
     10354     10355     10354     10350     10350     10351     10350     10352
     10352     10353     10350     10348     10348     10349     10348     10343
     10343     10344     10343     10345     10343     10341     10341     10338
     10342     10338     10339     10338     10340     10338     10342     10335
     10335     10336     10335     10337     10335     10332     10332     10333
     10332     10334     10332     10319     10319     10328     10319     10324
     10319     10320     10328     10329     10328     10330     10328     10331
     10324     10325     10324     10326     10324     10327     10320     10321
     10320     10322     10320     10323     10348     10346     10346     10347
     10346     10398     10398     10400     10400     10401     10400     10402
     10400     10403     10403     10404     10403     10405     10403     10406
     10406     10407     10406     10408     10406     10409     10409     10410
     10409     10411     10409     10412     10412     10413     10412     10414
     10412     10415     10415     10416     10415     10417     10415     10418
     10418     10419     10418     10420     10418     10421     10421     10422
     10423     10424     10423     10425     10425     10426     10425     10427
     10425     10428     10428     10429     10428     10430     10428     10431
     10431     10432     10431     10433     10431     10434     10434     10435
     10434     10436     10434     10437     10437     10438     10437     10439
     10437     10440     10440     10441     10440     10442     10440     10443
     10443     10444     10443     10445     10443     10446     10446     10447
     10446     10448     10446     10449     10354     10356     10421     10423
     10398     10399      2957      2959      2957      2958      2959      2960
      2957      3003      3003      3004      3003      3005      3003      3000
      3000      3001      3000      3002      2957      2961      2961      2962
      2961      2963      2961      2964      2964      2995      2995      3000
      2995      2996      2996      2997      2996      2998      2996      2999
      2964      2965      2965      2966      2965      2967      2967      2968
      2967      2969      2967      2970      2970      2971      2970      2993
      2993      2994      2993      2995      2970      2972      2972      2973
      2972      2982      2982      2987      2987      2988      2987      2989
      2987      2990      2990      2991      2990      2992      2990      2993
      2982      2983      2983      2984      2983      2985      2983      2986
      2972      2974      2974      2975      2974      2976      2974      2977
      2977      2978      2977      2979      2977      2980      2980      2981
      2980      2982      2980      3006      3006      3007      3006      3008
      3008      3009      3008      3010      3008      3011      3006      3012
      3012      3013      3012      3014      3012      3015      3015      3016
      3015      3017      3015      3018      3018      3019      3018      3020
      3018      3021      3021      3022      3021      3023      3023      3024
      3023      3025      3023      3026      3021      3027      3027      3028
      3027      3029      3027      3030      3031      3033      3031      3032
      3033      3034      3031      3077      3077      3078      3077      3079
      3077      3074      3074      3075      3074      3076      3031      3035
      3035      3036      3035      3037      3035      3038      3038      3069
      3069      3074      3069      3070      3070      3071      3070      3072
      3070      3073      3038      3039      3039      3040      3039      3041
      3041      3042      3041      3043      3041      3044      3044      3045
      3044      3067      3067      3068      3067      3069      3044      3046
      3046      3047      3046      3056      3056      3061      3061      3062
      3061      3063      3061      3064      3064      3065      3064      3066
      3064      3067      3056      3057      3057      3058      3057      3059
      3057      3060      3046      3048      3048      3049      3048      3050
      3048      3051      3051      3052      3051      3053      3051      3054
      3054      3055      3054      3056      3054      3080      3080      3081
      3080      3082      3082      3083      3082      3084      3082      3085
      3080      3086      3086      3087      3086      3088      3086      3089
      3089      3090      3089      3091      3089      3092      3092      3093
      3092      3094      3092      3095      3095      3096      3095      3097
      3097      3098      3097      3099      3097      3100      3095      3101
      3101      3102      3101      3103      3101      3104      3105      3107
      3105      3106      3107      3108      3105      3151      3151      3152
      3151      3153      3151      3148      3148      3149      3148      3150
      3105      3109      3109      3110      3109      3111      3109      3112
      3112      3143      3143      3148      3143      3144      3144      3145
      3144      3146      3144      3147      3112      3113      3113      3114
      3113      3115      3115      3116      3115      3117      3115      3118
      3118      3119      3118      3141      3141      3142      3141      3143
      3118      3120      3120      3121      3120      3130      3130      3135
      3135      3136      3135      3137      3135      3138      3138      3139
      3138      3140      3138      3141      3130      3131      3131      3132
      3131      3133      3131      3134      3120      3122      3122      3123
      3122      3124      3122      3125      3125      3126      3125      3127
      3125      3128      3128      3129      3128      3130      3128      3154
      3154      3155      3154      3156      3156      3157      3156      3158
      3156      3159      3154      3160      3160      3161      3160      3162
      3160      3163      3163      3164      3163      3165      3163      3166
      3166      3167      3166      3168      3166      3169      3169      3170
      3169      3171      3171      3172      3171      3173      3171      3174
      3169      3175      3175      3176      3175      3177      3175      3178
     10525     10526     10525     10527     10525     10528     10525     10522
     10522     10523     10522     10524     10522     10519     10519     10520
     10519     10521     10519     10516     10516     10517     10516     10518
     10516     10513     10513     10514     10513     10515     10513     10510
     10510     10511     10510     10512     10510     10507     10507     10508
     10507     10509     10507     10504     10504     10505     10504     10506
     10504     10501     10501     10502     10501     10503     10501     10498
     10498     10499     10498     10500     10498     10495     10495     10496
     10495     10497     10495     10492     10492     10493     10492     10494
     10492     10489     10489     10490     10489     10491     10489     10487
     10487     10488     10485     10486     10485     10481     10481     10482
     10481     10483     10483     10484     10481     10479     10479     10480
     10479     10474     10474     10475     10474     10476     10474     10472
     10472     10469     10473     10469     10470     10469     10471     10469
     10473     10466     10466     10467     10466     10468     10466     10463
     10463     10464     10463     10465     10463     10450     10450     10459
     10450     10455     10450     10451     10459     10460     10459     10461
     10459     10462     10455     10456     10455     10457     10455     10458
     10451     10452     10451     10453     10451     10454     10479     10477
     10477     10478     10477     10529     10529     10531     10531     10532
     10531     10533     10531     10534     10534     10535     10534     10536
     10534     10537     10537     10538     10537     10539     10537     10540
     10540     10541     10540     10542     10540     10543     10543     10544
     10543     10545     10543     10546     10546     10547     10546     10548
     10546     10549     10549     10550     10549     10551     10549     10552
     10552     10553     10554     10555     10554     10556     10556     10557
     10556     10558     10556     10559     10559     10560     10559     10561
     10559     10562     10562     10563     10562     10564     10562     10565
     10565     10566     10565     10567     10565     10568     10568     10569
     10568     10570     10568     10571     10571     10572     10571     10573
     10571     10574     10574     10575     10574     10576     10574     10577
     10577     10578     10577     10579     10577     10580     10485     10487
     10552     10554     10529     10530      3179      3181      3179      3180
      3181      3182      3179      3225      3225      3226      3225      3227
      3225      3222      3222      3223      3222      3224      3179      3183
      3183      3184      3183      3185      3183      3186      3186      3217
      3217      3222      3217      3218      3218      3219      3218      3220
      3218      3221      3186      3187      3187      3188      3187      3189
      3189      3190      3189      3191      3189      3192      3192      3193
      3192      3215      3215      3216      3215      3217      3192      3194
      3194      3195      3194      3204      3204      3209      3209      3210
      3209      3211      3209      3212      3212      3213      3212      3214
      3212      3215      3204      3205      3205      3206      3205      3207
      3205      3208      3194      3196      3196      3197      3196      3198
      3196      3199      3199      3200      3199      3201      3199      3202
      3202      3203      3202      3204      3202      3228      3228      3229
      3228      3230      3230      3231      3230      3232      3230      3233
      3228      3234      3234      3235      3234      3236      3234      3237
      3237      3238      3237      3239      3237      3240      3240      3241
      3240      3242      3240      3243      3243      3244      3243      3245
      3245      3246      3245      3247      3245      3248      3243      3249
      3249      3250      3249      3251      3249      3252     10656     10657
     10656     10658     10656     10659     10656     10653     10653     10654
     10653     10655     10653     10650     10650     10651     10650     10652
     10650     10647     10647     10648     10647     10649     10647     10644
     10644     10645     10644     10646     10644     10641     10641     10642
     10641     10643     10641     10638     10638     10639     10638     10640
     10638     10635     10635     10636     10635     10637     10635     10632
     10632     10633     10632     10634     10632     10629     10629     10630
     10629     10631     10629     10626     10626     10627     10626     10628
     10626     10623     10623     10624     10623     10625     10623     10620
     10620     10621     10620     10622     10620     10618     10618     10619
     10616     10617     10616     10612     10612     10613     10612     10614
     10614     10615     10612     10610     10610     10611     10610     10605
     10605     10606     10605     10607     10605     10603     10603     10600
     10604     10600     10601     10600     10602     10600     10604     10597
     10597     10598     10597     10599     10597     10594     10594     10595
     10594     10596     10594     10581     10581     10590     10581     10586
     10581     10582     10590     10591     10590     10592     10590     10593
     10586     10587     10586     10588     10586     10589     10582     10583
     10582     10584     10582     10585     10610     10608     10608     10609
     10608     10660     10660     10662     10662     10663     10662     10664
     10662     10665     10665     10666     10665     10667     10665     10668
     10668     10669     10668     10670     10668     10671     10671     10672
     10671     10673     10671     10674     10674     10675     10674     10676
     10674     10677     10677     10678     10677     10679     10677     10680
     10680     10681     10680     10682     10680     10683     10683     10684
     10685     10686     10685     10687     10687     10688     10687     10689
     10687     10690     10690     10691     10690     10692     10690     10693
     10693     10694     10693     10695     10693     10696     10696     10697
     10696     10698     10696     10699     10699     10700     10699     10701
     10699     10702     10702     10703     10702     10704     10702     10705
     10705     10706     10705     10707     10705     10708     10708     10709
     10708     10710     10708     10711     10616     10618     10683     10685
     10660     10661      7067      7068      7067      7069      7067      7070
      7067      7071      7071      7072      7071      7073      7071      7074
      7074      7075      7074      7076      7074      7080      7082      7081
      7080      7077      7077      7081      7077      7078      7077      7079
      7082      7083      7082      7084      7082      7085      7085      7086
      7085      7093      7085      7087      7093      7094      7093      7095
      7093      7096      7087      7088      7088      7090      7088      7089
      7090      7091      7090      7092      7090      7102      7102      7103
      7102      7104      7102      7105      7105      7106      7105      7107
      7105      7108      7108      7109      7108      7110      7108      7111
      7111      7112      7111      7113      7111      7114      7114      7115
      7114      7116      7114      7117      7117      7118      7117      7119
      7117      7120      7120      7121      7120      7122      7122      7123
      7122      7124      7124      7125      7124      7126      7124      7127
      7127      7128      7127      7129      7127      7130      7130      7131
      7130      7132      7130      7133      7133      7134      7133      7135
      7133      7136      7136      7137      7136      7138      7136      7139
      7139      7140      7139      7141      7139      7142      7142      7143
      7142      7144      7142      7145      7145      7146      7145      7147
      7145      7148      7096      7097      7097      7099      7097      7098
      7099      7100      7099      7101      7099      7149      7149      7150
      7149      7151      7149      7152      7152      7153      7152      7154
      7152      7155      7155      7156      7155      7157      7155      7158
      7158      7159      7158      7160      7158      7161      7161      7162
      7161      7163      7161      7164      7164      7165      7164      7166
      7164      7167      7167      7168      7167      7169      7167      7170
      7170      7171      7170      7172      7170      7173      7173      7174
      7173      7175      7173      7176      7176      7177      7176      7178
      7176      7179      7179      7180      7179      7181      7179      7182
      7182      7183      7182      7184      7182      7185      7185      7186
      7185      7187      7185      7188      7188      7189      7188      7190
      7188      7191      7191      7192      7191      7193      7191      7194
      7194      7195      7194      7196      7194      7197      3253      3255
      3253      3254      3255      3256      3253      3299      3299      3300
      3299      3301      3299      3296      3296      3297      3296      3298
      3253      3257      3257      3258      3257      3259      3257      3260
      3260      3291      3291      3296      3291      3292      3292      3293
      3292      3294      3292      3295      3260      3261      3261      3262
      3261      3263      3263      3264      3263      3265      3263      3266
      3266      3267      3266      3289      3289      3290      3289      3291
      3266      3268      3268      3269      3268      3278      3278      3283
      3283      3284      3283      3285      3283      3286      3286      3287
      3286      3288      3286      3289      3278      3279      3279      3280
      3279      3281      3279      3282      3268      3270      3270      3271
      3270      3272      3270      3273      3273      3274      3273      3275
      3273      3276      3276      3277      3276      3278      3276      3302
      3302      3303      3302      3304      3304      3305      3304      3306
      3304      3307      3302      3308      3308      3309      3308      3310
      3308      3311      3311      3312      3311      3313      3311      3314
      3314      3315      3314      3316      3314      3317      3317      3318
      3317      3319      3319      3320      3319      3321      3319      3322
      3317      3323      3323      3324      3323      3325      3323      3326
     15821     15822     15821     15823     15821     15824     15821     15825
     15825     15826     15825     15827     15825     15828     15828     15829
     15828     15830     15828     15834     15836     15835     15834     15831
     15831     15835     15831     15832     15831     15833     15836     15837
     15836     15838     15836     15839     15839     15840     15839     15847
     15839     15841     15847     15848     15847     15849     15847     15850
     15841     15842     15842     15844     15842     15843     15844     15845
     15844     15846     15844     15856     15856     15857     15856     15858
     15856     15859     15859     15860     15859     15861     15859     15862
     15862     15863     15862     15864     15864     15865     15864     15866
     15866     15867     15866     15868     15866     15869     15869     15870
     15869     15871     15871     15872     15871     15873     15873     15874
     15873     15875     15873     15876     15876     15877     15876     15878
     15878     15879     15878     15880     15880     15881     15880     15882
     15880     15883     15883     15884     15883     15885     15885     15886
     15885     15887     15887     15888     15887     15889     15887     15890
     15890     15891     15890     15892     15890     15893     15893     15894
     15893     15895     15893     15896     15896     15897     15896     15898
     15896     15899     15899     15900     15899     15901     15899     15902
     15850     15851     15851     15853     15851     15852     15853     15854
     15853     15855     15853     15903     15903     15904     15903     15905
     15903     15906     15906     15907     15906     15908     15906     15909
     15909     15910     15909     15911     15909     15912     15912     15913
     15912     15914     15912     15915     15915     15916     15915     15917
     15915     15918     15918     15919     15918     15920     15918     15921
     15921     15922     15921     15923     15921     15924     15924     15925
     15924     15926     15924     15927     15927     15928     15927     15929
     15927     15930     15930     15931     15930     15932     15930     15933
     15933     15934     15933     15935     15933     15936     15936     15937
     15936     15938     15936     15939     15939     15940     15939     15941
     15939     15942     15942     15943     15942     15944     15942     15945
     15945     15946     15945     15947     15945     15948     15948     15949
     15948     15950     15948     15951      3327      3329      3327      3328
      3329      3330      3327      3373      3373      3374      3373      3375
      3373      3370      3370      3371      3370      3372      3327      3331
      3331      3332      3331      3333      3331      3334      3334      3365
      3365      3370      3365      3366      3366      3367      3366      3368
      3366      3369      3334      3335      3335      3336      3335      3337
      3337      3338      3337      3339      3337      3340      3340      3341
      3340      3363      3363      3364      3363      3365      3340      3342
      3342      3343      3342      3352      3352      3357      3357      3358
      3357      3359      3357      3360      3360      3361      3360      3362
      3360      3363      3352      3353      3353      3354      3353      3355
      3353      3356      3342      3344      3344      3345      3344      3346
      3344      3347      3347      3348      3347      3349      3347      3350
      3350      3351      3350      3352      3350      3376      3376      3377
      3376      3378      3378      3379      3378      3380      3378      3381
      3376      3382      3382      3383      3382      3384      3382      3385
      3385      3386      3385      3387      3385      3388      3388      3389
      3388      3390      3388      3391      3391      3392      3391      3393
      3393      3394      3393      3395      3393      3396      3391      3397
      3397      3398      3397      3399      3397      3400      7198      7199
      7198      7200      7198      7201      7198      7202      7202      7203
      7202      7204      7202      7205      7205      7206      7205      7207
      7205      7211      7213      7212      7211      7208      7208      7212
      7208      7209      7208      7210      7213      7214      7213      7215
      7213      7216      7216      7217      7216      7224      7216      7218
      7224      7225      7224      7226      7224      7227      7218      7219
      7219      7221      7219      7220      7221      7222      7221      7223
      7221      7233      7233      7234      7233      7235      7233      7236
      7236      7237      7236      7238      7236      7239      7239      7240
      7239      7241      7239      7242      7242      7243      7242      7244
      7242      7245      7245      7246      7245      7247      7245      7248
      7248      7249      7248      7250      7248      7251      7251      7252
      7251      7253      7253      7254      7253      7255      7255      7256
      7255      7257      7255      7258      7258      7259      7258      7260
      7258      7261      7261      7262      7261      7263      7261      7264
      7264      7265      7264      7266      7264      7267      7267      7268
      7267      7269      7267      7270      7270      7271      7270      7272
      7270      7273      7273      7274      7273      7275      7273      7276
      7276      7277      7276      7278      7276      7279      7227      7228
      7228      7230      7228      7229      7230      7231      7230      7232
      7230      7280      7280      7281      7280      7282      7280      7283
      7283      7284      7283      7285      7283      7286      7286      7287
      7286      7288      7286      7289      7289      7290      7289      7291
      7289      7292      7292      7293      7292      7294      7292      7295
      7295      7296      7295      7297      7295      7298      7298      7299
      7298      7300      7298      7301      7301      7302      7301      7303
      7301      7304      7304      7305      7304      7306      7304      7307
      7307      7308      7307      7309      7307      7310      7310      7311
      7310      7312      7310      7313      7313      7314      7313      7315
      7313      7316      7316      7317      7316      7318      7316      7319
      7319      7320      7319      7321      7319      7322      7322      7323
      7322      7324      7322      7325      7325      7326      7325      7327
      7325      7328     15952     15953     15952     15954     15952     15955
     15952     15956     15956     15957     15956     15958     15956     15959
     15959     15960     15959     15961     15959     15965     15967     15966
     15965     15962     15962     15966     15962     15963     15962     15964
     15967     15968     15967     15969     15967     15970     15970     15971
     15970     15978     15970     15972     15978     15979     15978     15980
     15978     15981     15972     15973     15973     15975     15973     15974
     15975     15976     15975     15977     15975     15987     15987     15988
     15987     15989     15987     15990     15990     15991     15990     15992
     15990     15993     15993     15994     15993     15995     15995     15996
     15995     15997     15997     15998     15997     15999     15997     16000
     16000     16001     16000     16002     16002     16003     16002     16004
     16004     16005     16004     16006     16004     16007     16007     16008
     16007     16009     16009     16010     16009     16011     16011     16012
     16011     16013     16011     16014     16014     16015     16014     16016
     16016     16017     16016     16018     16018     16019     16018     16020
     16018     16021     16021     16022     16021     16023     16021     16024
     16024     16025     16024     16026     16024     16027     16027     16028
     16027     16029     16027     16030     16030     16031     16030     16032
     16030     16033     15981     15982     15982     15984     15982     15983
     15984     15985     15984     15986     15984     16034     16034     16035
     16034     16036     16034     16037     16037     16038     16037     16039
     16037     16040     16040     16041     16040     16042     16040     16043
     16043     16044     16043     16045     16043     16046     16046     16047
     16046     16048     16046     16049     16049     16050     16049     16051
     16049     16052     16052     16053     16052     16054     16052     16055
     16055     16056     16055     16057     16055     16058     16058     16059
     16058     16060     16058     16061     16061     16062     16061     16063
     16061     16064     16064     16065     16064     16066     16064     16067
     16067     16068     16067     16069     16067     16070     16070     16071
     16070     16072     16070     16073     16073     16074     16073     16075
     16073     16076     16076     16077     16076     16078     16076     16079
     16079     16080     16079     16081     16079     16082       134       135
       134       136       134       137       134       138       142       140
       140       138       140       141       138       139       138       143
       151       150       143       144       143       145       143       149
       149       146       146       150       146       147       146       148
       151       152       151       153       151       154       154       155
       154       162       154       156       162       163       162       164
       162       165       156       157       157       159       157       158
       159       160       159       161       159       171       171       172
       171       173       171       174       174       175       174       176
       174       177       177       178       177       179       179       180
       179       181       181       182       181       183       181       184
       184       185       184       186       186       187       186       188
       188       189       188       190       188       191       191       192
       191       193       193       194       193       195       195       196
       195       197       195       198       198       199       198       200
       200       201       200       202       202       203       202       204
       202       205       205       206       205       207       205       208
       208       209       208       210       208       211       211       212
       211       213       211       214       214       215       214       216
       214       217       165       166       166       168       166       167
       168       169       168       170       168       218       218       219
       218       220       218       221       221       222       221       223
       221       224       224       225       224       226       224       227
       227       228       227       229       227       230       230       231
       230       232       230       233       233       234       233       235
       233       236       236       237       236       238       236       239
       239       240       239       241       239       242       242       243
       242       244       242       245       245       246       245       247
       245       248       248       249       248       250       248       251
       251       252       251       253       251       254       254       255
       254       256       254       257       257       258       257       259
       257       260       260       261       260       262       260       263
       263       264       263       265       263       266       267       268
       267       269       267       270       267       271       275       273
       273       271       273       274       271       272       271       276
       284       283       276       277       276       278       276       282
       282       279       279       283       279       280       279       281
       284       285       284       286       284       287       287       288
       287       295       287       289       295       296       295       297
       295       298       289       290       290       292       290       291
       292       293       292       294       292       304       304       305
       304       306       304       307       307       308       307       309
       307       310       310       311       310       312       312       313
       312       314       314       315       314       316       314       317
       317       318       317       319       319       320       319       321
       321       322       321       323       321       324       324       325
       324       326       326       327       326       328       328       329
       328       330       328       331       331       332       331       333
       333       334       333       335       335       336       335       337
       335       338       338       339       338       340       338       341
       341       342       341       343       341       344       344       345
       344       346       344       347       347       348       347       349
       347       350       298       299       299       301       299       300
       301       302       301       303       301       351       351       352
       351       353       351       354       354       355       354       356
       354       357       357       358       357       359       357       360
       360       361       360       362       360       363       363       364
       363       365       363       366       366       367       366       368
       366       369       369       370       369       371       369       372
       372       373       372       374       372       375       375       376
       375       377       375       378       378       379       378       380
       378       381       381       382       381       383       381       384
       384       385       384       386       384       387       387       388
       387       389       387       390       390       391       390       392
       390       393       393       394       393       395       393       396
       396       397       396       398       396       399       400       401
       400       402       400       403       400       404       408       406
       406       404       406       407       404       405       404       409
       417       416       409       410       409       411       409       415
       415       412       412       416       412       413       412       414
       417       418       417       419       417       420       420       421
       420       428       420       422       428       429       428       430
       428       431       422       423       423       425       423       424
       425       426       425       427       425       437       437       438
       437       439       437       440       440       441       440       442
       440       443       443       444       443       445       445       446
       445       447       447       448       447       449       447       450
       450       451       450       452       452       453       452       454
       454       455       454       456       454       457       457       458
       457       459       459       460       459       461       461       462
       461       463       461       464       464       465       464       466
       466       467       466       468       468       469       468       470
       468       471       471       472       471       473       471       474
       474       475       474       476       474       477       477       478
       477       479       477       480       480       481       480       482
       480       483       431       432       432       434       432       433
       434       435       434       436       434       484       484       485
       484       486       484       487       487       488       487       489
       487       490       490       491       490       492       490       493
       493       494       493       495       493       496       496       497
       496       498       496       499       499       500       499       501
       499       502       502       503       502       504       502       505
       505       506       505       507       505       508       508       509
       508       510       508       511       511       512       511       513
       511       514       514       515       514       516       514       517
       517       518       517       519       517       520       520       521
       520       522       520       523       523       524       523       525
       523       526       526       527       526       528       526       529
       529       530       529       531       529       532     16083     16084
     16083     16085     16083     16086     16083     16087     16087     16088
     16087     16089     16087     16090     16090     16091     16090     16092
     16090     16096     16098     16097     16096     16093     16093     16097
     16093     16094     16093     16095     16098     16099     16098     16100
     16098     16101     16101     16102     16101     16109     16101     16103
     16109     16110     16109     16111     16109     16112     16103     16104
     16104     16106     16104     16105     16106     16107     16106     16108
     16106     16118     16118     16119     16118     16120     16118     16121
     16121     16122     16121     16123     16121     16124     16124     16125
     16124     16126     16126     16127     16126     16128     16128     16129
     16128     16130     16128     16131     16131     16132     16131     16133
     16133     16134     16133     16135     16135     16136     16135     16137
     16135     16138     16138     16139     16138     16140     16140     16141
     16140     16142     16142     16143     16142     16144     16142     16145
     16145     16146     16145     16147     16147     16148     16147     16149
     16149     16150     16149     16151     16149     16152     16152     16153
     16152     16154     16152     16155     16155     16156     16155     16157
     16155     16158     16158     16159     16158     16160     16158     16161
     16161     16162     16161     16163     16161     16164     16112     16113
     16113     16115     16113     16114     16115     16116     16115     16117
     16115     16165     16165     16166     16165     16167     16165     16168
     16168     16169     16168     16170     16168     16171     16171     16172
     16171     16173     16171     16174     16174     16175     16174     16176
     16174     16177     16177     16178     16177     16179     16177     16180
     16180     16181     16180     16182     16180     16183     16183     16184
     16183     16185     16183     16186     16186     16187     16186     16188
     16186     16189     16189     16190     16189     16191     16189     16192
     16192     16193     16192     16194     16192     16195     16195     16196
     16195     16197     16195     16198     16198     16199     16198     16200
     16198     16201     16201     16202     16201     16203     16201     16204
     16204     16205     16204     16206     16204     16207     16207     16208
     16207     16209     16207     16210     16210     16211     16210     16212
     16210     16213     16214     16215     16214     16216     16214     16217
     16214     16218     16218     16219     16218     16220     16218     16221
     16221     16222     16221     16223     16221     16227     16229     16228
     16227     16224     16224     16228     16224     16225     16224     16226
     16229     16230     16229     16231     16229     16232     16232     16233
     16232     16240     16232     16234     16240     16241     16240     16242
     16240     16243     16234     16235     16235     16237     16235     16236
     16237     16238     16237     16239     16237     16249     16249     16250
     16249     16251     16249     16252     16252     16253     16252     16254
     16252     16255     16255     16256     16255     16257     16257     16258
     16257     16259     16259     16260     16259     16261     16259     16262
     16262     16263     16262     16264     16264     16265     16264     16266
     16266     16267     16266     16268     16266     16269     16269     16270
     16269     16271     16271     16272     16271     16273     16273     16274
     16273     16275     16273     16276     16276     16277     16276     16278
     16278     16279     16278     16280     16280     16281     16280     16282
     16280     16283     16283     16284     16283     16285     16283     16286
     16286     16287     16286     16288     16286     16289     16289     16290
     16289     16291     16289     16292     16292     16293     16292     16294
     16292     16295     16243     16244     16244     16246     16244     16245
     16246     16247     16246     16248     16246     16296     16296     16297
     16296     16298     16296     16299     16299     16300     16299     16301
     16299     16302     16302     16303     16302     16304     16302     16305
     16305     16306     16305     16307     16305     16308     16308     16309
     16308     16310     16308     16311     16311     16312     16311     16313
     16311     16314     16314     16315     16314     16316     16314     16317
     16317     16318     16317     16319     16317     16320     16320     16321
     16320     16322     16320     16323     16323     16324     16323     16325
     16323     16326     16326     16327     16326     16328     16326     16329
     16329     16330     16329     16331     16329     16332     16332     16333
     16332     16334     16332     16335     16335     16336     16335     16337
     16335     16338     16338     16339     16338     16340     16338     16341
     16341     16342     16341     16343     16341     16344     16345     16346
     16345     16347     16345     16348     16345     16349     16349     16350
     16349     16351     16349     16352     16352     16353     16352     16354
     16352     16358     16360     16359     16358     16355     16355     16359
     16355     16356     16355     16357     16360     16361     16360     16362
     16360     16363     16363     16364     16363     16371     16363     16365
     16371     16372     16371     16373     16371     16374     16365     16366
     16366     16368     16366     16367     16368     16369     16368     16370
     16368     16380     16380     16381     16380     16382     16380     16383
     16383     16384     16383     16385     16383     16386     16386     16387
     16386     16388     16388     16389     16388     16390     16390     16391
     16390     16392     16390     16393     16393     16394     16393     16395
     16395     16396     16395     16397     16397     16398     16397     16399
     16397     16400     16400     16401     16400     16402     16402     16403
     16402     16404     16404     16405     16404     16406     16404     16407
     16407     16408     16407     16409     16409     16410     16409     16411
     16411     16412     16411     16413     16411     16414     16414     16415
     16414     16416     16414     16417     16417     16418     16417     16419
     16417     16420     16420     16421     16420     16422     16420     16423
     16423     16424     16423     16425     16423     16426     16374     16375
     16375     16377     16375     16376     16377     16378     16377     16379
     16377     16427     16427     16428     16427     16429     16427     16430
     16430     16431     16430     16432     16430     16433     16433     16434
     16433     16435     16433     16436     16436     16437     16436     16438
     16436     16439     16439     16440     16439     16441     16439     16442
     16442     16443     16442     16444     16442     16445     16445     16446
     16445     16447     16445     16448     16448     16449     16448     16450
     16448     16451     16451     16452     16451     16453     16451     16454
     16454     16455     16454     16456     16454     16457     16457     16458
     16457     16459     16457     16460     16460     16461     16460     16462
     16460     16463     16463     16464     16463     16465     16463     16466
     16466     16467     16466     16468     16466     16469     16469     16470
     16469     16471     16469     16472     16472     16473     16472     16474
     16472     16475      3401      3403      3401      3402      3403      3404
      3401      3447      3447      3448      3447      3449      3447      3444
      3444      3445      3444      3446      3401      3405      3405      3406
      3405      3407      3405      3408      3408      3439      3439      3444
      3439      3440      3440      3441      3440      3442      3440      3443
      3408      3409      3409      3410      3409      3411      3411      3412
      3411      3413      3411      3414      3414      3415      3414      3437
      3437      3438      3437      3439      3414      3416      3416      3417
      3416      3426      3426      3431      3431      3432      3431      3433
      3431      3434      3434      3435      3434      3436      3434      3437
      3426      3427      3427      3428      3427      3429      3427      3430
      3416      3418      3418      3419      3418      3420      3418      3421
      3421      3422      3421      3423      3421      3424      3424      3425
      3424      3426      3424      3450      3450      3451      3450      3452
      3452      3453      3452      3454      3452      3455      3450      3456
      3456      3457      3456      3458      3456      3459      3459      3460
      3459      3461      3459      3462      3462      3463      3462      3464
      3462      3465      3465      3466      3465      3467      3467      3468
      3467      3469      3467      3470      3465      3471      3471      3472
      3471      3473      3471      3474     16476     16477     16476     16478
     16476     16479     16476     16480     16480     16481     16480     16482
     16480     16483     16483     16484     16483     16485     16483     16489
     16491     16490     16489     16486     16486     16490     16486     16487
     16486     16488     16491     16492     16491     16493     16491     16494
     16494     16495     16494     16502     16494     16496     16502     16503
     16502     16504     16502     16505     16496     16497     16497     16499
     16497     16498     16499     16500     16499     16501     16499     16511
     16511     16512     16511     16513     16511     16514     16514     16515
     16514     16516     16514     16517     16517     16518     16517     16519
     16519     16520     16519     16521     16521     16522     16521     16523
     16521     16524     16524     16525     16524     16526     16526     16527
     16526     16528     16528     16529     16528     16530     16528     16531
     16531     16532     16531     16533     16533     16534     16533     16535
     16535     16536     16535     16537     16535     16538     16538     16539
     16538     16540     16540     16541     16540     16542     16542     16543
     16542     16544     16542     16545     16545     16546     16545     16547
     16545     16548     16548     16549     16548     16550     16548     16551
     16551     16552     16551     16553     16551     16554     16554     16555
     16554     16556     16554     16557     16505     16506     16506     16508
     16506     16507     16508     16509     16508     16510     16508     16558
     16558     16559     16558     16560     16558     16561     16561     16562
     16561     16563     16561     16564     16564     16565     16564     16566
     16564     16567     16567     16568     16567     16569     16567     16570
     16570     16571     16570     16572     16570     16573     16573     16574
     16573     16575     16573     16576     16576     16577     16576     16578
     16576     16579     16579     16580     16579     16581     16579     16582
     16582     16583     16582     16584     16582     16585     16585     16586
     16585     16587     16585     16588     16588     16589     16588     16590
     16588     16591     16591     16592     16591     16593     16591     16594
     16594     16595     16594     16596     16594     16597     16597     16598
     16597     16599     16597     16600     16600     16601     16600     16602
     16600     16603     16603     16604     16603     16605     16603     16606
     19489     19490     19489     19494     19489     19498     19490     19491
     19490     19492     19490     19493     19494     19495     19494     19496
     19494     19497     19498     19499     19498     19500     19498     19501
     19489     19502     19502     19503     19502     19504     19502     19505
     19505     19506     19505     19507     19505     19511     19512     19513
     19511     19508     19508     19512     19508     19509     19508     19510
     19513     19514     19513     19515     19513     19516     19516     19517
     19516     19524     19516     19518     19524     19525     19524     19526
     19524     19527     19518     19519     19519     19521     19519     19520
     19521     19522     19521     19523     19521     19533     19533     19534
     19533     19535     19533     19536     19536     19537     19536     19538
     19536     19539     19539     19540     19539     19541     19539     19542
     19542     19543     19542     19544     19542     19545     19545     19546
     19545     19547     19545     19548     19548     19549     19548     19550
     19548     19551     19551     19552     19551     19553     19553     19554
     19553     19555     19555     19556     19555     19557     19555     19558
     19558     19559     19558     19560     19560     19561     19560     19562
     19562     19563     19562     19564     19562     19565     19565     19566
     19565     19567     19565     19568     19568     19569     19568     19570
     19568     19571     19571     19572     19571     19573     19571     19574
     19574     19575     19574     19576     19574     19577     19527     19528
     19528     19530     19528     19529     19530     19531     19530     19532
     19530     19578     19578     19579     19578     19580     19578     19581
     19581     19582     19581     19583     19581     19584     19584     19585
     19584     19586     19584     19587     19587     19588     19587     19589
     19587     19590     19590     19591     19590     19592     19590     19593
     19593     19594     19593     19595     19593     19596     19596     19597
     19596     19598     19596     19599     19599     19600     19599     19601
     19599     19602     19602     19603     19602     19604     19602     19605
     19605     19606     19605     19607     19605     19608     19608     19609
     19608     19610     19608     19611     19611     19612     19611     19613
     19611     19614     19614     19615     19614     19616     19614     19617
     19617     19618     19617     19619     19617     19620     19620     19621
     19620     19622     19620     19623     19623     19624     19623     19625
     19623     19626      3475      3477      3475      3476      3477      3478
      3475      3521      3521      3522      3521      3523      3521      3518
      3518      3519      3518      3520      3475      3479      3479      3480
      3479      3481      3479      3482      3482      3513      3513      3518
      3513      3514      3514      3515      3514      3516      3514      3517
      3482      3483      3483      3484      3483      3485      3485      3486
      3485      3487      3485      3488      3488      3489      3488      3511
      3511      3512      3511      3513      3488      3490      3490      3491
      3490      3500      3500      3505      3505      3506      3505      3507
      3505      3508      3508      3509      3508      3510      3508      3511
      3500      3501      3501      3502      3501      3503      3501      3504
      3490      3492      3492      3493      3492      3494      3492      3495
      3495      3496      3495      3497      3495      3498      3498      3499
      3498      3500      3498      3524      3524      3525      3524      3526
      3526      3527      3526      3528      3526      3529      3524      3530
      3530      3531      3530      3532      3530      3533      3533      3534
      3533      3535      3533      3536      3536      3537      3536      3538
      3536      3539      3539      3540      3539      3541      3541      3542
      3541      3543      3541      3544      3539      3545      3545      3546
      3545      3547      3545      3548     16607     16608     16607     16609
     16607     16610     16607     16611     16611     16612     16611     16613
     16611     16614     16614     16615     16614     16616     16614     16620
     16622     16621     16620     16617     16617     16621     16617     16618
     16617     16619     16622     16623     16622     16624     16622     16625
     16625     16626     16625     16633     16625     16627     16633     16634
     16633     16635     16633     16636     16627     16628     16628     16630
     16628     16629     16630     16631     16630     16632     16630     16642
     16642     16643     16642     16644     16642     16645     16645     16646
     16645     16647     16645     16648     16648     16649     16648     16650
     16650     16651     16650     16652     16652     16653     16652     16654
     16652     16655     16655     16656     16655     16657     16657     16658
     16657     16659     16659     16660     16659     16661     16659     16662
     16662     16663     16662     16664     16664     16665     16664     16666
     16666     16667     16666     16668     16666     16669     16669     16670
     16669     16671     16671     16672     16671     16673     16673     16674
     16673     16675     16673     16676     16676     16677     16676     16678
     16676     16679     16679     16680     16679     16681     16679     16682
     16682     16683     16682     16684     16682     16685     16685     16686
     16685     16687     16685     16688     16636     16637     16637     16639
     16637     16638     16639     16640     16639     16641     16639     16689
     16689     16690     16689     16691     16689     16692     16692     16693
     16692     16694     16692     16695     16695     16696     16695     16697
     16695     16698     16698     16699     16698     16700     16698     16701
     16701     16702     16701     16703     16701     16704     16704     16705
     16704     16706     16704     16707     16707     16708     16707     16709
     16707     16710     16710     16711     16710     16712     16710     16713
     16713     16714     16713     16715     16713     16716     16716     16717
     16716     16718     16716     16719     16719     16720     16719     16721
     16719     16722     16722     16723     16722     16724     16722     16725
     16725     16726     16725     16727     16725     16728     16728     16729
     16728     16730     16728     16731     16731     16732     16731     16733
     16731     16734     16734     16735     16734     16736     16734     16737
      3549      3551      3549      3550      3551      3552      3549      3595
      3595      3596      3595      3597      3595      3592      3592      3593
      3592      3594      3549      3553      3553      3554      3553      3555
      3553      3556      3556      3587      3587      3592      3587      3588
      3588      3589      3588      3590      3588      3591      3556      3557
      3557      3558      3557      3559      3559      3560      3559      3561
      3559      3562      3562      3563      3562      3585      3585      3586
      3585      3587      3562      3564      3564      3565      3564      3574
      3574      3579      3579      3580      3579      3581      3579      3582
      3582      3583      3582      3584      3582      3585      3574      3575
      3575      3576      3575      3577      3575      3578      3564      3566
      3566      3567      3566      3568      3566      3569      3569      3570
      3569      3571      3569      3572      3572      3573      3572      3574
      3572      3598      3598      3599      3598      3600      3600      3601
      3600      3602      3600      3603      3598      3604      3604      3605
      3604      3606      3604      3607      3607      3608      3607      3609
      3607      3610      3610      3611      3610      3612      3610      3613
      3613      3614      3613      3615      3615      3616      3615      3617
      3615      3618      3613      3619      3619      3620      3619      3621
      3619      3622      3623      3625      3623      3624      3625      3626
      3623      3669      3669      3670      3669      3671      3669      3666
      3666      3667      3666      3668      3623      3627      3627      3628
      3627      3629      3627      3630      3630      3661      3661      3666
      3661      3662      3662      3663      3662      3664      3662      3665
      3630      3631      3631      3632      3631      3633      3633      3634
      3633      3635      3633      3636      3636      3637      3636      3659
      3659      3660      3659      3661      3636      3638      3638      3639
      3638      3648      3648      3653      3653      3654      3653      3655
      3653      3656      3656      3657      3656      3658      3656      3659
      3648      3649      3649      3650      3649      3651      3649      3652
      3638      3640      3640      3641      3640      3642      3640      3643
      3643      3644      3643      3645      3643      3646      3646      3647
      3646      3648      3646      3672      3672      3673      3672      3674
      3674      3675      3674      3676      3674      3677      3672      3678
      3678      3679      3678      3680      3678      3681      3681      3682
      3681      3683      3681      3684      3684      3685      3684      3686
      3684      3687      3687      3688      3687      3689      3689      3690
      3689      3691      3689      3692      3687      3693      3693      3694
      3693      3695      3693      3696       533       534       533       535
       533       536       533       537       541       539       539       537
       539       540       537       538       537       542       550       549
       542       543       542       544       542       548       548       545
       545       549       545       546       545       547       550       551
       550       552       550       553       553       554       553       561
       553       555       561       562       561       563       561       564
       555       556       556       558       556       557       558       559
       558       560       558       570       570       571       570       572
       570       573       573       574       573       575       573       576
       576       577       576       578       578       579       578       580
       580       581       580       582       580       583       583       584
       583       585       585       586       585       587       587       588
       587       589       587       590       590       591       590       592
       592       593       592       594       594       595       594       596
       594       597       597       598       597       599       599       600
       599       601       601       602       601       603       601       604
       604       605       604       606       604       607       607       608
       607       609       607       610       610       611       610       612
       610       613       613       614       613       615       613       616
       564       565       565       567       565       566       567       568
       567       569       567       617       617       618       617       619
       617       620       620       621       620       622       620       623
       623       624       623       625       623       626       626       627
       626       628       626       629       629       630       629       631
       629       632       632       633       632       634       632       635
       635       636       635       637       635       638       638       639
       638       640       638       641       641       642       641       643
       641       644       644       645       644       646       644       647
       647       648       647       649       647       650       650       651
       650       652       650       653       653       654       653       655
       653       656       656       657       656       658       656       659
       659       660       659       661       659       662       662       663
       662       664       662       665     16738     16739     16738     16740
     16738     16741     16738     16742     16742     16743     16742     16744
     16742     16745     16745     16746     16745     16747     16745     16751
     16753     16752     16751     16748     16748     16752     16748     16749
     16748     16750     16753     16754     16753     16755     16753     16756
     16756     16757     16756     16764     16756     16758     16764     16765
     16764     16766     16764     16767     16758     16759     16759     16761
     16759     16760     16761     16762     16761     16763     16761     16773
     16773     16774     16773     16775     16773     16776     16776     16777
     16776     16778     16776     16779     16779     16780     16779     16781
     16781     16782     16781     16783     16783     16784     16783     16785
     16783     16786     16786     16787     16786     16788     16788     16789
     16788     16790     16790     16791     16790     16792     16790     16793
     16793     16794     16793     16795     16795     16796     16795     16797
     16797     16798     16797     16799     16797     16800     16800     16801
     16800     16802     16802     16803     16802     16804     16804     16805
     16804     16806     16804     16807     16807     16808     16807     16809
     16807     16810     16810     16811     16810     16812     16810     16813
     16813     16814     16813     16815     16813     16816     16816     16817
     16816     16818     16816     16819     16767     16768     16768     16770
     16768     16769     16770     16771     16770     16772     16770     16820
     16820     16821     16820     16822     16820     16823     16823     16824
     16823     16825     16823     16826     16826     16827     16826     16828
     16826     16829     16829     16830     16829     16831     16829     16832
     16832     16833     16832     16834     16832     16835     16835     16836
     16835     16837     16835     16838     16838     16839     16838     16840
     16838     16841     16841     16842     16841     16843     16841     16844
     16844     16845     16844     16846     16844     16847     16847     16848
     16847     16849     16847     16850     16850     16851     16850     16852
     16850     16853     16853     16854     16853     16855     16853     16856
     16856     16857     16856     16858     16856     16859     16859     16860
     16859     16861     16859     16862     16862     16863     16862     16864
     16862     16865     16865     16866     16865     16867     16865     16868
     21145     21149     21145     21153     21145     21157     21149     21150
     21149     21151     21149     21152     21153     21154     21153     21155
     21153     21156     21157     21158     21157     21159     21157     21160
     21145     21146     21146     21147     21146     21148     21146     21161
     21161     21162     21161     21163     21161     21167     21168     21169
     21167     21164     21164     21168     21164     21165     21164     21166
     21169     21170     21169     21171     21169     21172     21172     21173
     21172     21180     21172     21174     21180     21181     21180     21182
     21180     21183     21174     21175     21175     21177     21175     21176
     21177     21178     21177     21179     21177     21189     21189     21190
     21189     21191     21189     21192     21192     21193     21192     21194
     21192     21195     21195     21196     21195     21197     21195     21198
     21198     21199     21198     21200     21198     21201     21201     21202
     21201     21203     21201     21204     21204     21205     21204     21206
     21204     21207     21207     21208     21207     21209     21209     21210
     21209     21211     21211     21212     21211     21213     21211     21214
     21214     21215     21214     21216     21214     21217     21217     21218
     21217     21219     21217     21220     21220     21221     21220     21222
     21220     21223     21223     21224     21223     21225     21223     21226
     21226     21227     21226     21228     21226     21229     21229     21230
     21229     21231     21229     21232     21232     21233     21232     21234
     21232     21235     21183     21184     21184     21186     21184     21185
     21186     21187     21186     21188     21186     21236     21236     21237
     21236     21238     21236     21239     21239     21240     21239     21241
     21239     21242     21242     21243     21242     21244     21242     21245
     21245     21246     21245     21247     21245     21248     21248     21249
     21248     21250     21248     21251     21251     21252     21251     21253
     21251     21254     21254     21255     21254     21256     21254     21257
     21257     21258     21257     21259     21257     21260     21260     21261
     21260     21262     21260     21263     21263     21264     21263     21265
     21263     21266     21266     21267     21266     21268     21266     21269
     21269     21270     21269     21271     21269     21272     21272     21273
     21272     21274     21272     21275     21275     21276     21275     21277
     21275     21278      3697      3699      3697      3698      3699      3700
      3697      3743      3743      3744      3743      3745      3743      3740
      3740      3741      3740      3742      3697      3701      3701      3702
      3701      3703      3701      3704      3704      3735      3735      3740
      3735      3736      3736      3737      3736      3738      3736      3739
      3704      3705      3705      3706      3705      3707      3707      3708
      3707      3709      3707      3710      3710      3711      3710      3733
      3733      3734      3733      3735      3710      3712      3712      3713
      3712      3722      3722      3727      3727      3728      3727      3729
      3727      3730      3730      3731      3730      3732      3730      3733
      3722      3723      3723      3724      3723      3725      3723      3726
      3712      3714      3714      3715      3714      3716      3714      3717
      3717      3718      3717      3719      3717      3720      3720      3721
      3720      3722      3720      3746      3746      3747      3746      3748
      3748      3749      3748      3750      3748      3751      3746      3752
      3752      3753      3752      3754      3752      3755      3755      3756
      3755      3757      3755      3758      3758      3759      3758      3760
      3758      3761      3761      3762      3761      3763      3763      3764
      3763      3765      3763      3766      3761      3767      3767      3768
      3767      3769      3767      3770     10787     10788     10787     10789
     10787     10790     10787     10784     10784     10785     10784     10786
     10784     10781     10781     10782     10781     10783     10781     10778
     10778     10779     10778     10780     10778     10775     10775     10776
     10775     10777     10775     10772     10772     10773     10772     10774
     10772     10769     10769     10770     10769     10771     10769     10766
     10766     10767     10766     10768     10766     10763     10763     10764
     10763     10765     10763     10760     10760     10761     10760     10762
     10760     10757     10757     10758     10757     10759     10757     10754
     10754     10755     10754     10756     10754     10751     10751     10752
     10751     10753     10751     10749     10749     10750     10747     10748
     10747     10743     10743     10744     10743     10745     10745     10746
     10743     10741     10741     10742     10741     10736     10736     10737
     10736     10738     10736     10734     10734     10731     10735     10731
     10732     10731     10733     10731     10735     10728     10728     10729
     10728     10730     10728     10725     10725     10726     10725     10727
     10725     10712     10712     10721     10712     10717     10712     10713
     10721     10722     10721     10723     10721     10724     10717     10718
     10717     10719     10717     10720     10713     10714     10713     10715
     10713     10716     10741     10739     10739     10740     10739     10791
     10791     10793     10793     10794     10793     10795     10793     10796
     10796     10797     10796     10798     10796     10799     10799     10800
     10799     10801     10799     10802     10802     10803     10802     10804
     10802     10805     10805     10806     10805     10807     10805     10808
     10808     10809     10808     10810     10808     10811     10811     10812
     10811     10813     10811     10814     10814     10815     10816     10817
     10816     10818     10818     10819     10818     10820     10818     10821
     10821     10822     10821     10823     10821     10824     10824     10825
     10824     10826     10824     10827     10827     10828     10827     10829
     10827     10830     10830     10831     10830     10832     10830     10833
     10833     10834     10833     10835     10833     10836     10836     10837
     10836     10838     10836     10839     10839     10840     10839     10841
     10839     10842     10747     10749     10814     10816     10791     10792
     10918     10919     10918     10920     10918     10921     10918     10915
     10915     10916     10915     10917     10915     10912     10912     10913
     10912     10914     10912     10909     10909     10910     10909     10911
     10909     10906     10906     10907     10906     10908     10906     10903
     10903     10904     10903     10905     10903     10900     10900     10901
     10900     10902     10900     10897     10897     10898     10897     10899
     10897     10894     10894     10895     10894     10896     10894     10891
     10891     10892     10891     10893     10891     10888     10888     10889
     10888     10890     10888     10885     10885     10886     10885     10887
     10885     10882     10882     10883     10882     10884     10882     10880
     10880     10881     10878     10879     10878     10874     10874     10875
     10874     10876     10876     10877     10874     10872     10872     10873
     10872     10867     10867     10868     10867     10869     10867     10865
     10865     10862     10866     10862     10863     10862     10864     10862
     10866     10859     10859     10860     10859     10861     10859     10856
     10856     10857     10856     10858     10856     10843     10843     10852
     10843     10848     10843     10844     10852     10853     10852     10854
     10852     10855     10848     10849     10848     10850     10848     10851
     10844     10845     10844     10846     10844     10847     10872     10870
     10870     10871     10870     10922     10922     10924     10924     10925
     10924     10926     10924     10927     10927     10928     10927     10929
     10927     10930     10930     10931     10930     10932     10930     10933
     10933     10934     10933     10935     10933     10936     10936     10937
     10936     10938     10936     10939     10939     10940     10939     10941
     10939     10942     10942     10943     10942     10944     10942     10945
     10945     10946     10947     10948     10947     10949     10949     10950
     10949     10951     10949     10952     10952     10953     10952     10954
     10952     10955     10955     10956     10955     10957     10955     10958
     10958     10959     10958     10960     10958     10961     10961     10962
     10961     10963     10961     10964     10964     10965     10964     10966
     10964     10967     10967     10968     10967     10969     10967     10970
     10970     10971     10970     10972     10970     10973     10878     10880
     10945     10947     10922     10923       666       667       666       668
       666       669       666       670       674       672       672       670
       672       673       670       671       670       675       683       682
       675       676       675       677       675       681       681       678
       678       682       678       679       678       680       683       684
       683       685       683       686       686       687       686       694
       686       688       694       695       694       696       694       697
       688       689       689       691       689       690       691       692
       691       693       691       703       703       704       703       705
       703       706       706       707       706       708       706       709
       709       710       709       711       711       712       711       713
       713       714       713       715       713       716       716       717
       716       718       718       719       718       720       720       721
       720       722       720       723       723       724       723       725
       725       726       725       727       727       728       727       729
       727       730       730       731       730       732       732       733
       732       734       734       735       734       736       734       737
       737       738       737       739       737       740       740       741
       740       742       740       743       743       744       743       745
       743       746       746       747       746       748       746       749
       697       698       698       700       698       699       700       701
       700       702       700       750       750       751       750       752
       750       753       753       754       753       755       753       756
       756       757       756       758       756       759       759       760
       759       761       759       762       762       763       762       764
       762       765       765       766       765       767       765       768
       768       769       768       770       768       771       771       772
       771       773       771       774       774       775       774       776
       774       777       777       778       777       779       777       780
       780       781       780       782       780       783       783       784
       783       785       783       786       786       787       786       788
       786       789       789       790       789       791       789       792
       792       793       792       794       792       795       795       796
       795       797       795       798     11049     11050     11049     11051
     11049     11052     11049     11046     11046     11047     11046     11048
     11046     11043     11043     11044     11043     11045     11043     11040
     11040     11041     11040     11042     11040     11037     11037     11038
     11037     11039     11037     11034     11034     11035     11034     11036
     11034     11031     11031     11032     11031     11033     11031     11028
     11028     11029     11028     11030     11028     11025     11025     11026
     11025     11027     11025     11022     11022     11023     11022     11024
     11022     11019     11019     11020     11019     11021     11019     11016
     11016     11017     11016     11018     11016     11013     11013     11014
     11013     11015     11013     11011     11011     11012     11009     11010
     11009     11005     11005     11006     11005     11007     11007     11008
     11005     11003     11003     11004     11003     10998     10998     10999
     10998     11000     10998     10996     10996     10993     10997     10993
     10994     10993     10995     10993     10997     10990     10990     10991
     10990     10992     10990     10987     10987     10988     10987     10989
     10987     10974     10974     10983     10974     10979     10974     10975
     10983     10984     10983     10985     10983     10986     10979     10980
     10979     10981     10979     10982     10975     10976     10975     10977
     10975     10978     11003     11001     11001     11002     11001     11053
     11053     11055     11055     11056     11055     11057     11055     11058
     11058     11059     11058     11060     11058     11061     11061     11062
     11061     11063     11061     11064     11064     11065     11064     11066
     11064     11067     11067     11068     11067     11069     11067     11070
     11070     11071     11070     11072     11070     11073     11073     11074
     11073     11075     11073     11076     11076     11077     11078     11079
     11078     11080     11080     11081     11080     11082     11080     11083
     11083     11084     11083     11085     11083     11086     11086     11087
     11086     11088     11086     11089     11089     11090     11089     11091
     11089     11092     11092     11093     11092     11094     11092     11095
     11095     11096     11095     11097     11095     11098     11098     11099
     11098     11100     11098     11101     11101     11102     11101     11103
     11101     11104     11009     11011     11076     11078     11053     11054
     19627     19628     19627     19632     19627     19636     19628     19629
     19628     19630     19628     19631     19632     19633     19632     19634
     19632     19635     19636     19637     19636     19638     19636     19639
     19627     19640     19640     19641     19640     19642     19640     19643
     19643     19644     19643     19645     19643     19649     19650     19651
     19649     19646     19646     19650     19646     19647     19646     19648
     19651     19652     19651     19653     19651     19654     19654     19655
     19654     19662     19654     19656     19662     19663     19662     19664
     19662     19665     19656     19657     19657     19659     19657     19658
     19659     19660     19659     19661     19659     19671     19671     19672
     19671     19673     19671     19674     19674     19675     19674     19676
     19674     19677     19677     19678     19677     19679     19677     19680
     19680     19681     19680     19682     19680     19683     19683     19684
     19683     19685     19683     19686     19686     19687     19686     19688
     19686     19689     19689     19690     19689     19691     19691     19692
     19691     19693     19693     19694     19693     19695     19693     19696
     19696     19697     19696     19698     19698     19699     19698     19700
     19700     19701     19700     19702     19700     19703     19703     19704
     19703     19705     19703     19706     19706     19707     19706     19708
     19706     19709     19709     19710     19709     19711     19709     19712
     19712     19713     19712     19714     19712     19715     19665     19666
     19666     19668     19666     19667     19668     19669     19668     19670
     19668     19716     19716     19717     19716     19718     19716     19719
     19719     19720     19719     19721     19719     19722     19722     19723
     19722     19724     19722     19725     19725     19726     19725     19727
     19725     19728     19728     19729     19728     19730     19728     19731
     19731     19732     19731     19733     19731     19734     19734     19735
     19734     19736     19734     19737     19737     19738     19737     19739
     19737     19740     19740     19741     19740     19742     19740     19743
     19743     19744     19743     19745     19743     19746     19746     19747
     19746     19748     19746     19749     19749     19750     19749     19751
     19749     19752     19752     19753     19752     19754     19752     19755
     19755     19756     19755     19757     19755     19758     19758     19759
     19758     19760     19758     19761     19761     19762     19761     19763
     19761     19764     11180     11181     11180     11182     11180     11183
     11180     11177     11177     11178     11177     11179     11177     11174
     11174     11175     11174     11176     11174     11171     11171     11172
     11171     11173     11171     11168     11168     11169     11168     11170
     11168     11165     11165     11166     11165     11167     11165     11162
     11162     11163     11162     11164     11162     11159     11159     11160
     11159     11161     11159     11156     11156     11157     11156     11158
     11156     11153     11153     11154     11153     11155     11153     11150
     11150     11151     11150     11152     11150     11147     11147     11148
     11147     11149     11147     11144     11144     11145     11144     11146
     11144     11142     11142     11143     11140     11141     11140     11136
     11136     11137     11136     11138     11138     11139     11136     11134
     11134     11135     11134     11129     11129     11130     11129     11131
     11129     11127     11127     11124     11128     11124     11125     11124
     11126     11124     11128     11121     11121     11122     11121     11123
     11121     11118     11118     11119     11118     11120     11118     11105
     11105     11114     11105     11110     11105     11106     11114     11115
     11114     11116     11114     11117     11110     11111     11110     11112
     11110     11113     11106     11107     11106     11108     11106     11109
     11134     11132     11132     11133     11132     11184     11184     11186
     11186     11187     11186     11188     11186     11189     11189     11190
     11189     11191     11189     11192     11192     11193     11192     11194
     11192     11195     11195     11196     11195     11197     11195     11198
     11198     11199     11198     11200     11198     11201     11201     11202
     11201     11203     11201     11204     11204     11205     11204     11206
     11204     11207     11207     11208     11209     11210     11209     11211
     11211     11212     11211     11213     11211     11214     11214     11215
     11214     11216     11214     11217     11217     11218     11217     11219
     11217     11220     11220     11221     11220     11222     11220     11223
     11223     11224     11223     11225     11223     11226     11226     11227
     11226     11228     11226     11229     11229     11230     11229     11231
     11229     11232     11232     11233     11232     11234     11232     11235
     11140     11142     11207     11209     11184     11185     11311     11312
     11311     11313     11311     11314     11311     11308     11308     11309
     11308     11310     11308     11305     11305     11306     11305     11307
     11305     11302     11302     11303     11302     11304     11302     11299
     11299     11300     11299     11301     11299     11296     11296     11297
     11296     11298     11296     11293     11293     11294     11293     11295
     11293     11290     11290     11291     11290     11292     11290     11287
     11287     11288     11287     11289     11287     11284     11284     11285
     11284     11286     11284     11281     11281     11282     11281     11283
     11281     11278     11278     11279     11278     11280     11278     11275
     11275     11276     11275     11277     11275     11273     11273     11274
     11271     11272     11271     11267     11267     11268     11267     11269
     11269     11270     11267     11265     11265     11266     11265     11260
     11260     11261     11260     11262     11260     11258     11258     11255
     11259     11255     11256     11255     11257     11255     11259     11252
     11252     11253     11252     11254     11252     11249     11249     11250
     11249     11251     11249     11236     11236     11245     11236     11241
     11236     11237     11245     11246     11245     11247     11245     11248
     11241     11242     11241     11243     11241     11244     11237     11238
     11237     11239     11237     11240     11265     11263     11263     11264
     11263     11315     11315     11317     11317     11318     11317     11319
     11317     11320     11320     11321     11320     11322     11320     11323
     11323     11324     11323     11325     11323     11326     11326     11327
     11326     11328     11326     11329     11329     11330     11329     11331
     11329     11332     11332     11333     11332     11334     11332     11335
     11335     11336     11335     11337     11335     11338     11338     11339
     11340     11341     11340     11342     11342     11343     11342     11344
     11342     11345     11345     11346     11345     11347     11345     11348
     11348     11349     11348     11350     11348     11351     11351     11352
     11351     11353     11351     11354     11354     11355     11354     11356
     11354     11357     11357     11358     11357     11359     11357     11360
     11360     11361     11360     11362     11360     11363     11363     11364
     11363     11365     11363     11366     11271     11273     11338     11340
     11315     11316      3771      3773      3771      3772      3773      3774
      3771      3817      3817      3818      3817      3819      3817      3814
      3814      3815      3814      3816      3771      3775      3775      3776
      3775      3777      3775      3778      3778      3809      3809      3814
      3809      3810      3810      3811      3810      3812      3810      3813
      3778      3779      3779      3780      3779      3781      3781      3782
      3781      3783      3781      3784      3784      3785      3784      3807
      3807      3808      3807      3809      3784      3786      3786      3787
      3786      3796      3796      3801      3801      3802      3801      3803
      3801      3804      3804      3805      3804      3806      3804      3807
      3796      3797      3797      3798      3797      3799      3797      3800
      3786      3788      3788      3789      3788      3790      3788      3791
      3791      3792      3791      3793      3791      3794      3794      3795
      3794      3796      3794      3820      3820      3821      3820      3822
      3822      3823      3822      3824      3822      3825      3820      3826
      3826      3827      3826      3828      3826      3829      3829      3830
      3829      3831      3829      3832      3832      3833      3832      3834
      3832      3835      3835      3836      3835      3837      3837      3838
      3837      3839      3837      3840      3835      3841      3841      3842
      3841      3843      3841      3844      7329      7330      7329      7331
      7329      7332      7329      7333      7333      7334      7333      7335
      7333      7336      7336      7337      7336      7338      7336      7342
      7344      7343      7342      7339      7339      7343      7339      7340
      7339      7341      7344      7345      7344      7346      7344      7347
      7347      7348      7347      7355      7347      7349      7355      7356
      7355      7357      7355      7358      7349      7350      7350      7352
      7350      7351      7352      7353      7352      7354      7352      7364
      7364      7365      7364      7366      7364      7367      7367      7368
      7367      7369      7367      7370      7370      7371      7370      7372
      7370      7373      7373      7374      7373      7375      7373      7376
      7376      7377      7376      7378      7376      7379      7379      7380
      7379      7381      7379      7382      7382      7383      7382      7384
      7384      7385      7384      7386      7386      7387      7386      7388
      7386      7389      7389      7390      7389      7391      7389      7392
      7392      7393      7392      7394      7392      7395      7395      7396
      7395      7397      7395      7398      7398      7399      7398      7400
      7398      7401      7401      7402      7401      7403      7401      7404
      7404      7405      7404      7406      7404      7407      7407      7408
      7407      7409      7407      7410      7358      7359      7359      7361
      7359      7360      7361      7362      7361      7363      7361      7411
      7411      7412      7411      7413      7411      7414      7414      7415
      7414      7416      7414      7417      7417      7418      7417      7419
      7417      7420      7420      7421      7420      7422      7420      7423
      7423      7424      7423      7425      7423      7426      7426      7427
      7426      7428      7426      7429      7429      7430      7429      7431
      7429      7432      7432      7433      7432      7434      7432      7435
      7435      7436      7435      7437      7435      7438      7438      7439
      7438      7440      7438      7441      7441      7442      7441      7443
      7441      7444      7444      7445      7444      7446      7444      7447
      7447      7448      7447      7449      7447      7450      7450      7451
      7450      7452      7450      7453      7453      7454      7453      7455
      7453      7456      7456      7457      7456      7458      7456      7459
      3845      3847      3845      3846      3847      3848      3845      3891
      3891      3892      3891      3893      3891      3888      3888      3889
      3888      3890      3845      3849      3849      3850      3849      3851
      3849      3852      3852      3883      3883      3888      3883      3884
      3884      3885      3884      3886      3884      3887      3852      3853
      3853      3854      3853      3855      3855      3856      3855      3857
      3855      3858      3858      3859      3858      3881      3881      3882
      3881      3883      3858      3860      3860      3861      3860      3870
      3870      3875      3875      3876      3875      3877      3875      3878
      3878      3879      3878      3880      3878      3881      3870      3871
      3871      3872      3871      3873      3871      3874      3860      3862
      3862      3863      3862      3864      3862      3865      3865      3866
      3865      3867      3865      3868      3868      3869      3868      3870
      3868      3894      3894      3895      3894      3896      3896      3897
      3896      3898      3896      3899      3894      3900      3900      3901
      3900      3902      3900      3903      3903      3904      3903      3905
      3903      3906      3906      3907      3906      3908      3906      3909
      3909      3910      3909      3911      3911      3912      3911      3913
      3911      3914      3909      3915      3915      3916      3915      3917
      3915      3918     16869     16870     16869     16871     16869     16872
     16869     16873     16873     16874     16873     16875     16873     16876
     16876     16877     16876     16878     16876     16882     16884     16883
     16882     16879     16879     16883     16879     16880     16879     16881
     16884     16885     16884     16886     16884     16887     16887     16888
     16887     16895     16887     16889     16895     16896     16895     16897
     16895     16898     16889     16890     16890     16892     16890     16891
     16892     16893     16892     16894     16892     16904     16904     16905
     16904     16906     16904     16907     16907     16908     16907     16909
     16907     16910     16910     16911     16910     16912     16912     16913
     16912     16914     16914     16915     16914     16916     16914     16917
     16917     16918     16917     16919     16919     16920     16919     16921
     16921     16922     16921     16923     16921     16924     16924     16925
     16924     16926     16926     16927     16926     16928     16928     16929
     16928     16930     16928     16931     16931     16932     16931     16933
     16933     16934     16933     16935     16935     16936     16935     16937
     16935     16938     16938     16939     16938     16940     16938     16941
     16941     16942     16941     16943     16941     16944     16944     16945
     16944     16946     16944     16947     16947     16948     16947     16949
     16947     16950     16898     16899     16899     16901     16899     16900
     16901     16902     16901     16903     16901     16951     16951     16952
     16951     16953     16951     16954     16954     16955     16954     16956
     16954     16957     16957     16958     16957     16959     16957     16960
     16960     16961     16960     16962     16960     16963     16963     16964
     16963     16965     16963     16966     16966     16967     16966     16968
     16966     16969     16969     16970     16969     16971     16969     16972
     16972     16973     16972     16974     16972     16975     16975     16976
     16975     16977     16975     16978     16978     16979     16978     16980
     16978     16981     16981     16982     16981     16983     16981     16984
     16984     16985     16984     16986     16984     16987     16987     16988
     16987     16989     16987     16990     16990     16991     16990     16992
     16990     16993     16993     16994     16993     16995     16993     16996
     16996     16997     16996     16998     16996     16999      3919      3921
      3919      3920      3921      3922      3919      3965      3965      3966
      3965      3967      3965      3962      3962      3963      3962      3964
      3919      3923      3923      3924      3923      3925      3923      3926
      3926      3957      3957      3962      3957      3958      3958      3959
      3958      3960      3958      3961      3926      3927      3927      3928
      3927      3929      3929      3930      3929      3931      3929      3932
      3932      3933      3932      3955      3955      3956      3955      3957
      3932      3934      3934      3935      3934      3944      3944      3949
      3949      3950      3949      3951      3949      3952      3952      3953
      3952      3954      3952      3955      3944      3945      3945      3946
      3945      3947      3945      3948      3934      3936      3936      3937
      3936      3938      3936      3939      3939      3940      3939      3941
      3939      3942      3942      3943      3942      3944      3942      3968
      3968      3969      3968      3970      3970      3971      3970      3972
      3970      3973      3968      3974      3974      3975      3974      3976
      3974      3977      3977      3978      3977      3979      3977      3980
      3980      3981      3980      3982      3980      3983      3983      3984
      3983      3985      3985      3986      3985      3987      3985      3988
      3983      3989      3989      3990      3989      3991      3989      3992
     11442     11443     11442     11444     11442     11445     11442     11439
     11439     11440     11439     11441     11439     11436     11436     11437
     11436     11438     11436     11433     11433     11434     11433     11435
     11433     11430     11430     11431     11430     11432     11430     11427
     11427     11428     11427     11429     11427     11424     11424     11425
     11424     11426     11424     11421     11421     11422     11421     11423
     11421     11418     11418     11419     11418     11420     11418     11415
     11415     11416     11415     11417     11415     11412     11412     11413
     11412     11414     11412     11409     11409     11410     11409     11411
     11409     11406     11406     11407     11406     11408     11406     11404
     11404     11405     11402     11403     11402     11398     11398     11399
     11398     11400     11400     11401     11398     11396     11396     11397
     11396     11391     11391     11392     11391     11393     11391     11389
     11389     11386     11390     11386     11387     11386     11388     11386
     11390     11383     11383     11384     11383     11385     11383     11380
     11380     11381     11380     11382     11380     11367     11367     11376
     11367     11372     11367     11368     11376     11377     11376     11378
     11376     11379     11372     11373     11372     11374     11372     11375
     11368     11369     11368     11370     11368     11371     11396     11394
     11394     11395     11394     11446     11446     11448     11448     11449
     11448     11450     11448     11451     11451     11452     11451     11453
     11451     11454     11454     11455     11454     11456     11454     11457
     11457     11458     11457     11459     11457     11460     11460     11461
     11460     11462     11460     11463     11463     11464     11463     11465
     11463     11466     11466     11467     11466     11468     11466     11469
     11469     11470     11471     11472     11471     11473     11473     11474
     11473     11475     11473     11476     11476     11477     11476     11478
     11476     11479     11479     11480     11479     11481     11479     11482
     11482     11483     11482     11484     11482     11485     11485     11486
     11485     11487     11485     11488     11488     11489     11488     11490
     11488     11491     11491     11492     11491     11493     11491     11494
     11494     11495     11494     11496     11494     11497     11402     11404
     11469     11471     11446     11447     11573     11574     11573     11575
     11573     11576     11573     11570     11570     11571     11570     11572
     11570     11567     11567     11568     11567     11569     11567     11564
     11564     11565     11564     11566     11564     11561     11561     11562
     11561     11563     11561     11558     11558     11559     11558     11560
     11558     11555     11555     11556     11555     11557     11555     11552
     11552     11553     11552     11554     11552     11549     11549     11550
     11549     11551     11549     11546     11546     11547     11546     11548
     11546     11543     11543     11544     11543     11545     11543     11540
     11540     11541     11540     11542     11540     11537     11537     11538
     11537     11539     11537     11535     11535     11536     11533     11534
     11533     11529     11529     11530     11529     11531     11531     11532
     11529     11527     11527     11528     11527     11522     11522     11523
     11522     11524     11522     11520     11520     11517     11521     11517
     11518     11517     11519     11517     11521     11514     11514     11515
     11514     11516     11514     11511     11511     11512     11511     11513
     11511     11498     11498     11507     11498     11503     11498     11499
     11507     11508     11507     11509     11507     11510     11503     11504
     11503     11505     11503     11506     11499     11500     11499     11501
     11499     11502     11527     11525     11525     11526     11525     11577
     11577     11579     11579     11580     11579     11581     11579     11582
     11582     11583     11582     11584     11582     11585     11585     11586
     11585     11587     11585     11588     11588     11589     11588     11590
     11588     11591     11591     11592     11591     11593     11591     11594
     11594     11595     11594     11596     11594     11597     11597     11598
     11597     11599     11597     11600     11600     11601     11602     11603
     11602     11604     11604     11605     11604     11606     11604     11607
     11607     11608     11607     11609     11607     11610     11610     11611
     11610     11612     11610     11613     11613     11614     11613     11615
     11613     11616     11616     11617     11616     11618     11616     11619
     11619     11620     11619     11621     11619     11622     11622     11623
     11622     11624     11622     11625     11625     11626     11625     11627
     11625     11628     11533     11535     11600     11602     11577     11578
     11704     11705     11704     11706     11704     11707     11704     11701
     11701     11702     11701     11703     11701     11698     11698     11699
     11698     11700     11698     11695     11695     11696     11695     11697
     11695     11692     11692     11693     11692     11694     11692     11689
     11689     11690     11689     11691     11689     11686     11686     11687
     11686     11688     11686     11683     11683     11684     11683     11685
     11683     11680     11680     11681     11680     11682     11680     11677
     11677     11678     11677     11679     11677     11674     11674     11675
     11674     11676     11674     11671     11671     11672     11671     11673
     11671     11668     11668     11669     11668     11670     11668     11666
     11666     11667     11664     11665     11664     11660     11660     11661
     11660     11662     11662     11663     11660     11658     11658     11659
     11658     11653     11653     11654     11653     11655     11653     11651
     11651     11648     11652     11648     11649     11648     11650     11648
     11652     11645     11645     11646     11645     11647     11645     11642
     11642     11643     11642     11644     11642     11629     11629     11638
     11629     11634     11629     11630     11638     11639     11638     11640
     11638     11641     11634     11635     11634     11636     11634     11637
     11630     11631     11630     11632     11630     11633     11658     11656
     11656     11657     11656     11708     11708     11710     11710     11711
     11710     11712     11710     11713     11713     11714     11713     11715
     11713     11716     11716     11717     11716     11718     11716     11719
     11719     11720     11719     11721     11719     11722     11722     11723
     11722     11724     11722     11725     11725     11726     11725     11727
     11725     11728     11728     11729     11728     11730     11728     11731
     11731     11732     11733     11734     11733     11735     11735     11736
     11735     11737     11735     11738     11738     11739     11738     11740
     11738     11741     11741     11742     11741     11743     11741     11744
     11744     11745     11744     11746     11744     11747     11747     11748
     11747     11749     11747     11750     11750     11751     11750     11752
     11750     11753     11753     11754     11753     11755     11753     11756
     11756     11757     11756     11758     11756     11759     11664     11666
     11731     11733     11708     11709     11835     11836     11835     11837
     11835     11838     11835     11832     11832     11833     11832     11834
     11832     11829     11829     11830     11829     11831     11829     11826
     11826     11827     11826     11828     11826     11823     11823     11824
     11823     11825     11823     11820     11820     11821     11820     11822
     11820     11817     11817     11818     11817     11819     11817     11814
     11814     11815     11814     11816     11814     11811     11811     11812
     11811     11813     11811     11808     11808     11809     11808     11810
     11808     11805     11805     11806     11805     11807     11805     11802
     11802     11803     11802     11804     11802     11799     11799     11800
     11799     11801     11799     11797     11797     11798     11795     11796
     11795     11791     11791     11792     11791     11793     11793     11794
     11791     11789     11789     11790     11789     11784     11784     11785
     11784     11786     11784     11782     11782     11779     11783     11779
     11780     11779     11781     11779     11783     11776     11776     11777
     11776     11778     11776     11773     11773     11774     11773     11775
     11773     11760     11760     11769     11760     11765     11760     11761
     11769     11770     11769     11771     11769     11772     11765     11766
     11765     11767     11765     11768     11761     11762     11761     11763
     11761     11764     11789     11787     11787     11788     11787     11839
     11839     11841     11841     11842     11841     11843     11841     11844
     11844     11845     11844     11846     11844     11847     11847     11848
     11847     11849     11847     11850     11850     11851     11850     11852
     11850     11853     11853     11854     11853     11855     11853     11856
     11856     11857     11856     11858     11856     11859     11859     11860
     11859     11861     11859     11862     11862     11863     11864     11865
     11864     11866     11866     11867     11866     11868     11866     11869
     11869     11870     11869     11871     11869     11872     11872     11873
     11872     11874     11872     11875     11875     11876     11875     11877
     11875     11878     11878     11879     11878     11880     11878     11881
     11881     11882     11881     11883     11881     11884     11884     11885
     11884     11886     11884     11887     11887     11888     11887     11889
     11887     11890     11795     11797     11862     11864     11839     11840
     19765     19766     19765     19770     19765     19774     19766     19767
     19766     19768     19766     19769     19770     19771     19770     19772
     19770     19773     19774     19775     19774     19776     19774     19777
     19765     19778     19778     19779     19778     19780     19778     19781
     19781     19782     19781     19783     19781     19787     19788     19789
     19787     19784     19784     19788     19784     19785     19784     19786
     19789     19790     19789     19791     19789     19792     19792     19793
     19792     19800     19792     19794     19800     19801     19800     19802
     19800     19803     19794     19795     19795     19797     19795     19796
     19797     19798     19797     19799     19797     19809     19809     19810
     19809     19811     19809     19812     19812     19813     19812     19814
     19812     19815     19815     19816     19815     19817     19815     19818
     19818     19819     19818     19820     19818     19821     19821     19822
     19821     19823     19821     19824     19824     19825     19824     19826
     19824     19827     19827     19828     19827     19829     19829     19830
     19829     19831     19831     19832     19831     19833     19831     19834
     19834     19835     19834     19836     19836     19837     19836     19838
     19838     19839     19838     19840     19838     19841     19841     19842
     19841     19843     19841     19844     19844     19845     19844     19846
     19844     19847     19847     19848     19847     19849     19847     19850
     19850     19851     19850     19852     19850     19853     19803     19804
     19804     19806     19804     19805     19806     19807     19806     19808
     19806     19854     19854     19855     19854     19856     19854     19857
     19857     19858     19857     19859     19857     19860     19860     19861
     19860     19862     19860     19863     19863     19864     19863     19865
     19863     19866     19866     19867     19866     19868     19866     19869
     19869     19870     19869     19871     19869     19872     19872     19873
     19872     19874     19872     19875     19875     19876     19875     19877
     19875     19878     19878     19879     19878     19880     19878     19881
     19881     19882     19881     19883     19881     19884     19884     19885
     19884     19886     19884     19887     19887     19888     19887     19889
     19887     19890     19890     19891     19890     19892     19890     19893
     19893     19894     19893     19895     19893     19896     19896     19897
     19896     19898     19896     19899     19899     19900     19899     19901
     19899     19902     19903     19904     19903     19908     19903     19912
     19904     19905     19904     19906     19904     19907     19908     19909
     19908     19910     19908     19911     19912     19913     19912     19914
     19912     19915     19903     19916     19916     19917     19916     19918
     19916     19919     19919     19920     19919     19921     19919     19925
     19926     19927     19925     19922     19922     19926     19922     19923
     19922     19924     19927     19928     19927     19929     19927     19930
     19930     19931     19930     19938     19930     19932     19938     19939
     19938     19940     19938     19941     19932     19933     19933     19935
     19933     19934     19935     19936     19935     19937     19935     19947
     19947     19948     19947     19949     19947     19950     19950     19951
     19950     19952     19950     19953     19953     19954     19953     19955
     19953     19956     19956     19957     19956     19958     19956     19959
     19959     19960     19959     19961     19959     19962     19962     19963
     19962     19964     19962     19965     19965     19966     19965     19967
     19967     19968     19967     19969     19969     19970     19969     19971
     19969     19972     19972     19973     19972     19974     19974     19975
     19974     19976     19976     19977     19976     19978     19976     19979
     19979     19980     19979     19981     19979     19982     19982     19983
     19982     19984     19982     19985     19985     19986     19985     19987
     19985     19988     19988     19989     19988     19990     19988     19991
     19941     19942     19942     19944     19942     19943     19944     19945
     19944     19946     19944     19992     19992     19993     19992     19994
     19992     19995     19995     19996     19995     19997     19995     19998
     19998     19999     19998     20000     19998     20001     20001     20002
     20001     20003     20001     20004     20004     20005     20004     20006
     20004     20007     20007     20008     20007     20009     20007     20010
     20010     20011     20010     20012     20010     20013     20013     20014
     20013     20015     20013     20016     20016     20017     20016     20018
     20016     20019     20019     20020     20019     20021     20019     20022
     20022     20023     20022     20024     20022     20025     20025     20026
     20025     20027     20025     20028     20028     20029     20028     20030
     20028     20031     20031     20032     20031     20033     20031     20034
     20034     20035     20034     20036     20034     20037     20037     20038
     20037     20039     20037     20040      3993      3995      3993      3994
      3995      3996      3993      4039      4039      4040      4039      4041
      4039      4036      4036      4037      4036      4038      3993      3997
      3997      3998      3997      3999      3997      4000      4000      4031
      4031      4036      4031      4032      4032      4033      4032      4034
      4032      4035      4000      4001      4001      4002      4001      4003
      4003      4004      4003      4005      4003      4006      4006      4007
      4006      4029      4029      4030      4029      4031      4006      4008
      4008      4009      4008      4018      4018      4023      4023      4024
      4023      4025      4023      4026      4026      4027      4026      4028
      4026      4029      4018      4019      4019      4020      4019      4021
      4019      4022      4008      4010      4010      4011      4010      4012
      4010      4013      4013      4014      4013      4015      4013      4016
      4016      4017      4016      4018      4016      4042      4042      4043
      4042      4044      4044      4045      4044      4046      4044      4047
      4042      4048      4048      4049      4048      4050      4048      4051
      4051      4052      4051      4053      4051      4054      4054      4055
      4054      4056      4054      4057      4057      4058      4057      4059
      4059      4060      4059      4061      4059      4062      4057      4063
      4063      4064      4063      4065      4063      4066      4067      4069
      4067      4068      4069      4070      4067      4113      4113      4114
      4113      4115      4113      4110      4110      4111      4110      4112
      4067      4071      4071      4072      4071      4073      4071      4074
      4074      4105      4105      4110      4105      4106      4106      4107
      4106      4108      4106      4109      4074      4075      4075      4076
      4075      4077      4077      4078      4077      4079      4077      4080
      4080      4081      4080      4103      4103      4104      4103      4105
      4080      4082      4082      4083      4082      4092      4092      4097
      4097      4098      4097      4099      4097      4100      4100      4101
      4100      4102      4100      4103      4092      4093      4093      4094
      4093      4095      4093      4096      4082      4084      4084      4085
      4084      4086      4084      4087      4087      4088      4087      4089
      4087      4090      4090      4091      4090      4092      4090      4116
      4116      4117      4116      4118      4118      4119      4118      4120
      4118      4121      4116      4122      4122      4123      4122      4124
      4122      4125      4125      4126      4125      4127      4125      4128
      4128      4129      4128      4130      4128      4131      4131      4132
      4131      4133      4133      4134      4133      4135      4133      4136
      4131      4137      4137      4138      4137      4139      4137      4140
      4141      4143      4141      4142      4143      4144      4141      4187
      4187      4188      4187      4189      4187      4184      4184      4185
      4184      4186      4141      4145      4145      4146      4145      4147
      4145      4148      4148      4179      4179      4184      4179      4180
      4180      4181      4180      4182      4180      4183      4148      4149
      4149      4150      4149      4151      4151      4152      4151      4153
      4151      4154      4154      4155      4154      4177      4177      4178
      4177      4179      4154      4156      4156      4157      4156      4166
      4166      4171      4171      4172      4171      4173      4171      4174
      4174      4175      4174      4176      4174      4177      4166      4167
      4167      4168      4167      4169      4167      4170      4156      4158
      4158      4159      4158      4160      4158      4161      4161      4162
      4161      4163      4161      4164      4164      4165      4164      4166
      4164      4190      4190      4191      4190      4192      4192      4193
      4192      4194      4192      4195      4190      4196      4196      4197
      4196      4198      4196      4199      4199      4200      4199      4201
      4199      4202      4202      4203      4202      4204      4202      4205
      4205      4206      4205      4207      4207      4208      4207      4209
      4207      4210      4205      4211      4211      4212      4211      4213
      4211      4214      4215      4217      4215      4216      4217      4218
      4215      4261      4261      4262      4261      4263      4261      4258
      4258      4259      4258      4260      4215      4219      4219      4220
      4219      4221      4219      4222      4222      4253      4253      4258
      4253      4254      4254      4255      4254      4256      4254      4257
      4222      4223      4223      4224      4223      4225      4225      4226
      4225      4227      4225      4228      4228      4229      4228      4251
      4251      4252      4251      4253      4228      4230      4230      4231
      4230      4240      4240      4245      4245      4246      4245      4247
      4245      4248      4248      4249      4248      4250      4248      4251
      4240      4241      4241      4242      4241      4243      4241      4244
      4230      4232      4232      4233      4232      4234      4232      4235
      4235      4236      4235      4237      4235      4238      4238      4239
      4238      4240      4238      4264      4264      4265      4264      4266
      4266      4267      4266      4268      4266      4269      4264      4270
      4270      4271      4270      4272      4270      4273      4273      4274
      4273      4275      4273      4276      4276      4277      4276      4278
      4276      4279      4279      4280      4279      4281      4281      4282
      4281      4283      4281      4284      4279      4285      4285      4286
      4285      4287      4285      4288     21701     21702     21701     21697
     21701     21681     21701     21706     21681     21682     21681     21683
     21683     21684     21681     21685     21685     21686     21685     21687
     21687     21688     21685     21689     21689     21690     21689     21691
     21691     21692     21689     21693     21693     21694     21693     21697
     21697     21698     21697     21699     21699     21700     21693     21695
     21695     21696     21706     21703     21703     21707     21703     21704
     21703     21705     21707     21708     21708     21709     21708     21710
     21708     21711     21711     21712     21711     21719     21711     21713
     21719     21720     21719     21721     21719     21722     21713     21714
     21714     21716     21714     21715     21716     21717     21716     21718
     21716     21728     21728     21729     21728     21730     21728     21731
     21731     21732     21731     21733     21731     21734     21734     21735
     21734     21736     21736     21737     21736     21738     21738     21739
     21738     21740     21738     21741     21741     21742     21741     21743
     21743     21744     21743     21745     21745     21746     21745     21747
     21745     21748     21748     21749     21748     21750     21750     21751
     21750     21752     21752     21753     21752     21754     21752     21755
     21755     21756     21755     21757     21757     21758     21757     21759
     21759     21760     21759     21761     21759     21762     21762     21763
     21762     21764     21762     21765     21765     21766     21765     21767
     21765     21768     21768     21769     21768     21770     21768     21771
     21771     21772     21771     21773     21771     21774     21722     21723
     21723     21725     21723     21724     21725     21726     21725     21727
     21725     21775     21775     21776     21775     21777     21775     21778
     21778     21779     21778     21780     21778     21781     21781     21782
     21781     21783     21781     21784     21784     21785     21784     21786
     21784     21787     21787     21788     21787     21789     21787     21790
     21790     21791     21790     21792     21790     21793     21793     21794
     21793     21795     21793     21796     21796     21797     21796     21798
     21796     21799     21799     21800     21799     21801     21799     21802
     21802     21803     21802     21804     21802     21805     21805     21806
     21805     21807     21805     21808     21808     21809     21808     21810
     21808     21811     21811     21812     21811     21813     21811     21814
     21814     21815     21814     21816     21814     21817     21817     21818
     21817     21819     21817     21820     21820     21821     21820     21822
     21820     21823      4289      4291      4289      4290      4291      4292
      4289      4335      4335      4336      4335      4337      4335      4332
      4332      4333      4332      4334      4289      4293      4293      4294
      4293      4295      4293      4296      4296      4327      4327      4332
      4327      4328      4328      4329      4328      4330      4328      4331
      4296      4297      4297      4298      4297      4299      4299      4300
      4299      4301      4299      4302      4302      4303      4302      4325
      4325      4326      4325      4327      4302      4304      4304      4305
      4304      4314      4314      4319      4319      4320      4319      4321
      4319      4322      4322      4323      4322      4324      4322      4325
      4314      4315      4315      4316      4315      4317      4315      4318
      4304      4306      4306      4307      4306      4308      4306      4309
      4309      4310      4309      4311      4309      4312      4312      4313
      4312      4314      4312      4338      4338      4339      4338      4340
      4340      4341      4340      4342      4340      4343      4338      4344
      4344      4345      4344      4346      4344      4347      4347      4348
      4347      4349      4347      4350      4350      4351      4350      4352
      4350      4353      4353      4354      4353      4355      4355      4356
      4355      4357      4355      4358      4353      4359      4359      4360
      4359      4361      4359      4362     11966     11967     11966     11968
     11966     11969     11966     11963     11963     11964     11963     11965
     11963     11960     11960     11961     11960     11962     11960     11957
     11957     11958     11957     11959     11957     11954     11954     11955
     11954     11956     11954     11951     11951     11952     11951     11953
     11951     11948     11948     11949     11948     11950     11948     11945
     11945     11946     11945     11947     11945     11942     11942     11943
     11942     11944     11942     11939     11939     11940     11939     11941
     11939     11936     11936     11937     11936     11938     11936     11933
     11933     11934     11933     11935     11933     11930     11930     11931
     11930     11932     11930     11928     11928     11929     11926     11927
     11926     11922     11922     11923     11922     11924     11924     11925
     11922     11920     11920     11921     11920     11915     11915     11916
     11915     11917     11915     11913     11913     11910     11914     11910
     11911     11910     11912     11910     11914     11907     11907     11908
     11907     11909     11907     11904     11904     11905     11904     11906
     11904     11891     11891     11900     11891     11896     11891     11892
     11900     11901     11900     11902     11900     11903     11896     11897
     11896     11898     11896     11899     11892     11893     11892     11894
     11892     11895     11920     11918     11918     11919     11918     11970
     11970     11972     11972     11973     11972     11974     11972     11975
     11975     11976     11975     11977     11975     11978     11978     11979
     11978     11980     11978     11981     11981     11982     11981     11983
     11981     11984     11984     11985     11984     11986     11984     11987
     11987     11988     11987     11989     11987     11990     11990     11991
     11990     11992     11990     11993     11993     11994     11995     11996
     11995     11997     11997     11998     11997     11999     11997     12000
     12000     12001     12000     12002     12000     12003     12003     12004
     12003     12005     12003     12006     12006     12007     12006     12008
     12006     12009     12009     12010     12009     12011     12009     12012
     12012     12013     12012     12014     12012     12015     12015     12016
     12015     12017     12015     12018     12018     12019     12018     12020
     12018     12021     11926     11928     11993     11995     11970     11971
       799       800       799       801       799       802       799       803
       807       805       805       803       805       806       803       804
       803       808       816       815       808       809       808       810
       808       814       814       811       811       815       811       812
       811       813       816       817       816       818       816       819
       819       820       819       827       819       821       827       828
       827       829       827       830       821       822       822       824
       822       823       824       825       824       826       824       836
       836       837       836       838       836       839       839       840
       839       841       839       842       842       843       842       844
       844       845       844       846       846       847       846       848
       846       849       849       850       849       851       851       852
       851       853       853       854       853       855       853       856
       856       857       856       858       858       859       858       860
       860       861       860       862       860       863       863       864
       863       865       865       866       865       867       867       868
       867       869       867       870       870       871       870       872
       870       873       873       874       873       875       873       876
       876       877       876       878       876       879       879       880
       879       881       879       882       830       831       831       833
       831       832       833       834       833       835       833       883
       883       884       883       885       883       886       886       887
       886       888       886       889       889       890       889       891
       889       892       892       893       892       894       892       895
       895       896       895       897       895       898       898       899
       898       900       898       901       901       902       901       903
       901       904       904       905       904       906       904       907
       907       908       907       909       907       910       910       911
       910       912       910       913       913       914       913       915
       913       916       916       917       916       918       916       919
       919       920       919       921       919       922       922       923
       922       924       922       925       925       926       925       927
       925       928       928       929       928       930       928       931
     17000     17001     17000     17002     17000     17003     17000     17004
     17004     17005     17004     17006     17004     17007     17007     17008
     17007     17009     17007     17013     17015     17014     17013     17010
     17010     17014     17010     17011     17010     17012     17015     17016
     17015     17017     17015     17018     17018     17019     17018     17026
     17018     17020     17026     17027     17026     17028     17026     17029
     17020     17021     17021     17023     17021     17022     17023     17024
     17023     17025     17023     17035     17035     17036     17035     17037
     17035     17038     17038     17039     17038     17040     17038     17041
     17041     17042     17041     17043     17043     17044     17043     17045
     17045     17046     17045     17047     17045     17048     17048     17049
     17048     17050     17050     17051     17050     17052     17052     17053
     17052     17054     17052     17055     17055     17056     17055     17057
     17057     17058     17057     17059     17059     17060     17059     17061
     17059     17062     17062     17063     17062     17064     17064     17065
     17064     17066     17066     17067     17066     17068     17066     17069
     17069     17070     17069     17071     17069     17072     17072     17073
     17072     17074     17072     17075     17075     17076     17075     17077
     17075     17078     17078     17079     17078     17080     17078     17081
     17029     17030     17030     17032     17030     17031     17032     17033
     17032     17034     17032     17082     17082     17083     17082     17084
     17082     17085     17085     17086     17085     17087     17085     17088
     17088     17089     17088     17090     17088     17091     17091     17092
     17091     17093     17091     17094     17094     17095     17094     17096
     17094     17097     17097     17098     17097     17099     17097     17100
     17100     17101     17100     17102     17100     17103     17103     17104
     17103     17105     17103     17106     17106     17107     17106     17108
     17106     17109     17109     17110     17109     17111     17109     17112
     17112     17113     17112     17114     17112     17115     17115     17116
     17115     17117     17115     17118     17118     17119     17118     17120
     17118     17121     17121     17122     17121     17123     17121     17124
     17124     17125     17124     17126     17124     17127     17127     17128
     17127     17129     17127     17130     21279     21283     21279     21287
     21279     21291     21283     21284     21283     21285     21283     21286
     21287     21288     21287     21289     21287     21290     21291     21292
     21291     21293     21291     21294     21279     21280     21280     21281
     21280     21282     21280     21295     21295     21296     21295     21297
     21295     21301     21302     21303     21301     21298     21298     21302
     21298     21299     21298     21300     21303     21304     21303     21305
     21303     21306     21306     21307     21306     21314     21306     21308
     21314     21315     21314     21316     21314     21317     21308     21309
     21309     21311     21309     21310     21311     21312     21311     21313
     21311     21323     21323     21324     21323     21325     21323     21326
     21326     21327     21326     21328     21326     21329     21329     21330
     21329     21331     21329     21332     21332     21333     21332     21334
     21332     21335     21335     21336     21335     21337     21335     21338
     21338     21339     21338     21340     21338     21341     21341     21342
     21341     21343     21343     21344     21343     21345     21345     21346
     21345     21347     21345     21348     21348     21349     21348     21350
     21348     21351     21351     21352     21351     21353     21351     21354
     21354     21355     21354     21356     21354     21357     21357     21358
     21357     21359     21357     21360     21360     21361     21360     21362
     21360     21363     21363     21364     21363     21365     21363     21366
     21366     21367     21366     21368     21366     21369     21317     21318
     21318     21320     21318     21319     21320     21321     21320     21322
     21320     21370     21370     21371     21370     21372     21370     21373
     21373     21374     21373     21375     21373     21376     21376     21377
     21376     21378     21376     21379     21379     21380     21379     21381
     21379     21382     21382     21383     21382     21384     21382     21385
     21385     21386     21385     21387     21385     21388     21388     21389
     21388     21390     21388     21391     21391     21392     21391     21393
     21391     21394     21394     21395     21394     21396     21394     21397
     21397     21398     21397     21399     21397     21400     21400     21401
     21400     21402     21400     21403     21403     21404     21403     21405
     21403     21406     21406     21407     21406     21408     21406     21409
     21409     21410     21409     21411     21409     21412     12097     12098
     12097     12099     12097     12100     12097     12094     12094     12095
     12094     12096     12094     12091     12091     12092     12091     12093
     12091     12088     12088     12089     12088     12090     12088     12085
     12085     12086     12085     12087     12085     12082     12082     12083
     12082     12084     12082     12079     12079     12080     12079     12081
     12079     12076     12076     12077     12076     12078     12076     12073
     12073     12074     12073     12075     12073     12070     12070     12071
     12070     12072     12070     12067     12067     12068     12067     12069
     12067     12064     12064     12065     12064     12066     12064     12061
     12061     12062     12061     12063     12061     12059     12059     12060
     12057     12058     12057     12053     12053     12054     12053     12055
     12055     12056     12053     12051     12051     12052     12051     12046
     12046     12047     12046     12048     12046     12044     12044     12041
     12045     12041     12042     12041     12043     12041     12045     12038
     12038     12039     12038     12040     12038     12035     12035     12036
     12035     12037     12035     12022     12022     12031     12022     12027
     12022     12023     12031     12032     12031     12033     12031     12034
     12027     12028     12027     12029     12027     12030     12023     12024
     12023     12025     12023     12026     12051     12049     12049     12050
     12049     12101     12101     12103     12103     12104     12103     12105
     12103     12106     12106     12107     12106     12108     12106     12109
     12109     12110     12109     12111     12109     12112     12112     12113
     12112     12114     12112     12115     12115     12116     12115     12117
     12115     12118     12118     12119     12118     12120     12118     12121
     12121     12122     12121     12123     12121     12124     12124     12125
     12126     12127     12126     12128     12128     12129     12128     12130
     12128     12131     12131     12132     12131     12133     12131     12134
     12134     12135     12134     12136     12134     12137     12137     12138
     12137     12139     12137     12140     12140     12141     12140     12142
     12140     12143     12143     12144     12143     12145     12143     12146
     12146     12147     12146     12148     12146     12149     12149     12150
     12149     12151     12149     12152     12057     12059     12124     12126
     12101     12102     12228     12229     12228     12230     12228     12231
     12228     12225     12225     12226     12225     12227     12225     12222
     12222     12223     12222     12224     12222     12219     12219     12220
     12219     12221     12219     12216     12216     12217     12216     12218
     12216     12213     12213     12214     12213     12215     12213     12210
     12210     12211     12210     12212     12210     12207     12207     12208
     12207     12209     12207     12204     12204     12205     12204     12206
     12204     12201     12201     12202     12201     12203     12201     12198
     12198     12199     12198     12200     12198     12195     12195     12196
     12195     12197     12195     12192     12192     12193     12192     12194
     12192     12190     12190     12191     12188     12189     12188     12184
     12184     12185     12184     12186     12186     12187     12184     12182
     12182     12183     12182     12177     12177     12178     12177     12179
     12177     12175     12175     12172     12176     12172     12173     12172
     12174     12172     12176     12169     12169     12170     12169     12171
     12169     12166     12166     12167     12166     12168     12166     12153
     12153     12162     12153     12158     12153     12154     12162     12163
     12162     12164     12162     12165     12158     12159     12158     12160
     12158     12161     12154     12155     12154     12156     12154     12157
     12182     12180     12180     12181     12180     12232     12232     12234
     12234     12235     12234     12236     12234     12237     12237     12238
     12237     12239     12237     12240     12240     12241     12240     12242
     12240     12243     12243     12244     12243     12245     12243     12246
     12246     12247     12246     12248     12246     12249     12249     12250
     12249     12251     12249     12252     12252     12253     12252     12254
     12252     12255     12255     12256     12257     12258     12257     12259
     12259     12260     12259     12261     12259     12262     12262     12263
     12262     12264     12262     12265     12265     12266     12265     12267
     12265     12268     12268     12269     12268     12270     12268     12271
     12271     12272     12271     12273     12271     12274     12274     12275
     12274     12276     12274     12277     12277     12278     12277     12279
     12277     12280     12280     12281     12280     12282     12280     12283
     12188     12190     12255     12257     12232     12233     12359     12360
     12359     12361     12359     12362     12359     12356     12356     12357
     12356     12358     12356     12353     12353     12354     12353     12355
     12353     12350     12350     12351     12350     12352     12350     12347
     12347     12348     12347     12349     12347     12344     12344     12345
     12344     12346     12344     12341     12341     12342     12341     12343
     12341     12338     12338     12339     12338     12340     12338     12335
     12335     12336     12335     12337     12335     12332     12332     12333
     12332     12334     12332     12329     12329     12330     12329     12331
     12329     12326     12326     12327     12326     12328     12326     12323
     12323     12324     12323     12325     12323     12321     12321     12322
     12319     12320     12319     12315     12315     12316     12315     12317
     12317     12318     12315     12313     12313     12314     12313     12308
     12308     12309     12308     12310     12308     12306     12306     12303
     12307     12303     12304     12303     12305     12303     12307     12300
     12300     12301     12300     12302     12300     12297     12297     12298
     12297     12299     12297     12284     12284     12293     12284     12289
     12284     12285     12293     12294     12293     12295     12293     12296
     12289     12290     12289     12291     12289     12292     12285     12286
     12285     12287     12285     12288     12313     12311     12311     12312
     12311     12363     12363     12365     12365     12366     12365     12367
     12365     12368     12368     12369     12368     12370     12368     12371
     12371     12372     12371     12373     12371     12374     12374     12375
     12374     12376     12374     12377     12377     12378     12377     12379
     12377     12380     12380     12381     12380     12382     12380     12383
     12383     12384     12383     12385     12383     12386     12386     12387
     12388     12389     12388     12390     12390     12391     12390     12392
     12390     12393     12393     12394     12393     12395     12393     12396
     12396     12397     12396     12398     12396     12399     12399     12400
     12399     12401     12399     12402     12402     12403     12402     12404
     12402     12405     12405     12406     12405     12407     12405     12408
     12408     12409     12408     12410     12408     12411     12411     12412
     12411     12413     12411     12414     12319     12321     12386     12388
     12363     12364      8517      8521      8517      8525      8517      8529
      8521      8522      8521      8523      8521      8524      8525      8526
      8525      8527      8525      8528      8529      8530      8529      8531
      8529      8532      8517      8518      8518      8519      8518      8520
      8518      8533      8533      8534      8533      8535      8533      8539
      8540      8541      8539      8536      8536      8540      8536      8537
      8536      8538      8541      8542      8541      8543      8541      8544
      8544      8545      8544      8552      8544      8546      8552      8553
      8552      8554      8552      8555      8546      8547      8547      8549
      8547      8548      8549      8550      8549      8551      8549      8561
      8561      8562      8561      8563      8561      8564      8564      8565
      8564      8566      8564      8567      8567      8568      8567      8569
      8569      8570      8569      8571      8571      8572      8571      8573
      8571      8574      8574      8575      8574      8576      8576      8577
      8576      8578      8578      8579      8578      8580      8578      8581
      8581      8582      8581      8583      8583      8584      8583      8585
      8585      8586      8585      8587      8585      8588      8588      8589
      8588      8590      8590      8591      8590      8592      8592      8593
      8592      8594      8592      8595      8595      8596      8595      8597
      8595      8598      8598      8599      8598      8600      8598      8601
      8601      8602      8601      8603      8601      8604      8604      8605
      8604      8606      8604      8607      8555      8556      8556      8558
      8556      8557      8558      8559      8558      8560      8558      8608
      8608      8609      8608      8610      8608      8611      8611      8612
      8611      8613      8611      8614      8614      8615      8614      8616
      8614      8617      8617      8618      8617      8619      8617      8620
      8620      8621      8620      8622      8620      8623      8623      8624
      8623      8625      8623      8626      8626      8627      8626      8628
      8626      8629      8629      8630      8629      8631      8629      8632
      8632      8633      8632      8634      8632      8635      8635      8636
      8635      8637      8635      8638      8638      8639      8638      8640
      8638      8641      8641      8642      8641      8643      8641      8644
      8644      8645      8644      8646      8644      8647      8647      8648
      8647      8649      8647      8650      8650      8651      8650      8652
      8650      8653      8653      8654      8653      8655      8653      8656
     12490     12491     12490     12492     12490     12493     12490     12487
     12487     12488     12487     12489     12487     12484     12484     12485
     12484     12486     12484     12481     12481     12482     12481     12483
     12481     12478     12478     12479     12478     12480     12478     12475
     12475     12476     12475     12477     12475     12472     12472     12473
     12472     12474     12472     12469     12469     12470     12469     12471
     12469     12466     12466     12467     12466     12468     12466     12463
     12463     12464     12463     12465     12463     12460     12460     12461
     12460     12462     12460     12457     12457     12458     12457     12459
     12457     12454     12454     12455     12454     12456     12454     12452
     12452     12453     12450     12451     12450     12446     12446     12447
     12446     12448     12448     12449     12446     12444     12444     12445
     12444     12439     12439     12440     12439     12441     12439     12437
     12437     12434     12438     12434     12435     12434     12436     12434
     12438     12431     12431     12432     12431     12433     12431     12428
     12428     12429     12428     12430     12428     12415     12415     12424
     12415     12420     12415     12416     12424     12425     12424     12426
     12424     12427     12420     12421     12420     12422     12420     12423
     12416     12417     12416     12418     12416     12419     12444     12442
     12442     12443     12442     12494     12494     12496     12496     12497
     12496     12498     12496     12499     12499     12500     12499     12501
     12499     12502     12502     12503     12502     12504     12502     12505
     12505     12506     12505     12507     12505     12508     12508     12509
     12508     12510     12508     12511     12511     12512     12511     12513
     12511     12514     12514     12515     12514     12516     12514     12517
     12517     12518     12519     12520     12519     12521     12521     12522
     12521     12523     12521     12524     12524     12525     12524     12526
     12524     12527     12527     12528     12527     12529     12527     12530
     12530     12531     12530     12532     12530     12533     12533     12534
     12533     12535     12533     12536     12536     12537     12536     12538
     12536     12539     12539     12540     12539     12541     12539     12542
     12542     12543     12542     12544     12542     12545     12450     12452
     12517     12519     12494     12495     12621     12622     12621     12623
     12621     12624     12621     12618     12618     12619     12618     12620
     12618     12615     12615     12616     12615     12617     12615     12612
     12612     12613     12612     12614     12612     12609     12609     12610
     12609     12611     12609     12606     12606     12607     12606     12608
     12606     12603     12603     12604     12603     12605     12603     12600
     12600     12601     12600     12602     12600     12597     12597     12598
     12597     12599     12597     12594     12594     12595     12594     12596
     12594     12591     12591     12592     12591     12593     12591     12588
     12588     12589     12588     12590     12588     12585     12585     12586
     12585     12587     12585     12583     12583     12584     12581     12582
     12581     12577     12577     12578     12577     12579     12579     12580
     12577     12575     12575     12576     12575     12570     12570     12571
     12570     12572     12570     12568     12568     12565     12569     12565
     12566     12565     12567     12565     12569     12562     12562     12563
     12562     12564     12562     12559     12559     12560     12559     12561
     12559     12546     12546     12555     12546     12551     12546     12547
     12555     12556     12555     12557     12555     12558     12551     12552
     12551     12553     12551     12554     12547     12548     12547     12549
     12547     12550     12575     12573     12573     12574     12573     12625
     12625     12627     12627     12628     12627     12629     12627     12630
     12630     12631     12630     12632     12630     12633     12633     12634
     12633     12635     12633     12636     12636     12637     12636     12638
     12636     12639     12639     12640     12639     12641     12639     12642
     12642     12643     12642     12644     12642     12645     12645     12646
     12645     12647     12645     12648     12648     12649     12650     12651
     12650     12652     12652     12653     12652     12654     12652     12655
     12655     12656     12655     12657     12655     12658     12658     12659
     12658     12660     12658     12661     12661     12662     12661     12663
     12661     12664     12664     12665     12664     12666     12664     12667
     12667     12668     12667     12669     12667     12670     12670     12671
     12670     12672     12670     12673     12673     12674     12673     12675
     12673     12676     12581     12583     12648     12650     12625     12626
       932       933       932       934       932       935       932       936
       940       938       938       936       938       939       936       937
       936       941       949       948       941       942       941       943
       941       947       947       944       944       948       944       945
       944       946       949       950       949       951       949       952
       952       953       952       960       952       954       960       961
       960       962       960       963       954       955       955       957
       955       956       957       958       957       959       957       969
       969       970       969       971       969       972       972       973
       972       974       972       975       975       976       975       977
       977       978       977       979       979       980       979       981
       979       982       982       983       982       984       984       985
       984       986       986       987       986       988       986       989
       989       990       989       991       991       992       991       993
       993       994       993       995       993       996       996       997
       996       998       998       999       998      1000      1000      1001
      1000      1002      1000      1003      1003      1004      1003      1005
      1003      1006      1006      1007      1006      1008      1006      1009
      1009      1010      1009      1011      1009      1012      1012      1013
      1012      1014      1012      1015       963       964       964       966
       964       965       966       967       966       968       966      1016
      1016      1017      1016      1018      1016      1019      1019      1020
      1019      1021      1019      1022      1022      1023      1022      1024
      1022      1025      1025      1026      1025      1027      1025      1028
      1028      1029      1028      1030      1028      1031      1031      1032
      1031      1033      1031      1034      1034      1035      1034      1036
      1034      1037      1037      1038      1037      1039      1037      1040
      1040      1041      1040      1042      1040      1043      1043      1044
      1043      1045      1043      1046      1046      1047      1046      1048
      1046      1049      1049      1050      1049      1051      1049      1052
      1052      1053      1052      1054      1052      1055      1055      1056
      1055      1057      1055      1058      1058      1059      1058      1060
      1058      1061      1061      1062      1061      1063      1061      1064
      4363      4365      4363      4364      4365      4366      4363      4409
      4409      4410      4409      4411      4409      4406      4406      4407
      4406      4408      4363      4367      4367      4368      4367      4369
      4367      4370      4370      4401      4401      4406      4401      4402
      4402      4403      4402      4404      4402      4405      4370      4371
      4371      4372      4371      4373      4373      4374      4373      4375
      4373      4376      4376      4377      4376      4399      4399      4400
      4399      4401      4376      4378      4378      4379      4378      4388
      4388      4393      4393      4394      4393      4395      4393      4396
      4396      4397      4396      4398      4396      4399      4388      4389
      4389      4390      4389      4391      4389      4392      4378      4380
      4380      4381      4380      4382      4380      4383      4383      4384
      4383      4385      4383      4386      4386      4387      4386      4388
      4386      4412      4412      4413      4412      4414      4414      4415
      4414      4416      4414      4417      4412      4418      4418      4419
      4418      4420      4418      4421      4421      4422      4421      4423
      4421      4424      4424      4425      4424      4426      4424      4427
      4427      4428      4427      4429      4429      4430      4429      4431
      4429      4432      4427      4433      4433      4434      4433      4435
      4433      4436     20041     20042     20041     20046     20041     20050
     20042     20043     20042     20044     20042     20045     20046     20047
     20046     20048     20046     20049     20050     20051     20050     20052
     20050     20053     20041     20054     20054     20055     20054     20056
     20054     20057     20057     20058     20057     20059     20057     20063
     20064     20065     20063     20060     20060     20064     20060     20061
     20060     20062     20065     20066     20065     20067     20065     20068
     20068     20069     20068     20076     20068     20070     20076     20077
     20076     20078     20076     20079     20070     20071     20071     20073
     20071     20072     20073     20074     20073     20075     20073     20085
     20085     20086     20085     20087     20085     20088     20088     20089
     20088     20090     20088     20091     20091     20092     20091     20093
     20091     20094     20094     20095     20094     20096     20094     20097
     20097     20098     20097     20099     20097     20100     20100     20101
     20100     20102     20100     20103     20103     20104     20103     20105
     20105     20106     20105     20107     20107     20108     20107     20109
     20107     20110     20110     20111     20110     20112     20112     20113
     20112     20114     20114     20115     20114     20116     20114     20117
     20117     20118     20117     20119     20117     20120     20120     20121
     20120     20122     20120     20123     20123     20124     20123     20125
     20123     20126     20126     20127     20126     20128     20126     20129
     20079     20080     20080     20082     20080     20081     20082     20083
     20082     20084     20082     20130     20130     20131     20130     20132
     20130     20133     20133     20134     20133     20135     20133     20136
     20136     20137     20136     20138     20136     20139     20139     20140
     20139     20141     20139     20142     20142     20143     20142     20144
     20142     20145     20145     20146     20145     20147     20145     20148
     20148     20149     20148     20150     20148     20151     20151     20152
     20151     20153     20151     20154     20154     20155     20154     20156
     20154     20157     20157     20158     20157     20159     20157     20160
     20160     20161     20160     20162     20160     20163     20163     20164
     20163     20165     20163     20166     20166     20167     20166     20168
     20166     20169     20169     20170     20169     20171     20169     20172
     20172     20173     20172     20174     20172     20175     20175     20176
     20175     20177     20175     20178     21844     21845     21844     21840
     21844     21824     21844     21849     21824     21825     21824     21826
     21826     21827     21824     21828     21828     21829     21828     21830
     21830     21831     21828     21832     21832     21833     21832     21834
     21834     21835     21832     21836     21836     21837     21836     21840
     21840     21841     21840     21842     21842     21843     21836     21838
     21838     21839     21849     21846     21846     21850     21846     21847
     21846     21848     21850     21851     21851     21852     21851     21853
     21851     21854     21854     21855     21854     21862     21854     21856
     21862     21863     21862     21864     21862     21865     21856     21857
     21857     21859     21857     21858     21859     21860     21859     21861
     21859     21871     21871     21872     21871     21873     21871     21874
     21874     21875     21874     21876     21874     21877     21877     21878
     21877     21879     21879     21880     21879     21881     21881     21882
     21881     21883     21881     21884     21884     21885     21884     21886
     21886     21887     21886     21888     21888     21889     21888     21890
     21888     21891     21891     21892     21891     21893     21893     21894
     21893     21895     21895     21896     21895     21897     21895     21898
     21898     21899     21898     21900     21900     21901     21900     21902
     21902     21903     21902     21904     21902     21905     21905     21906
     21905     21907     21905     21908     21908     21909     21908     21910
     21908     21911     21911     21912     21911     21913     21911     21914
     21914     21915     21914     21916     21914     21917     21865     21866
     21866     21868     21866     21867     21868     21869     21868     21870
     21868     21918     21918     21919     21918     21920     21918     21921
     21921     21922     21921     21923     21921     21924     21924     21925
     21924     21926     21924     21927     21927     21928     21927     21929
     21927     21930     21930     21931     21930     21932     21930     21933
     21933     21934     21933     21935     21933     21936     21936     21937
     21936     21938     21936     21939     21939     21940     21939     21941
     21939     21942     21942     21943     21942     21944     21942     21945
     21945     21946     21945     21947     21945     21948     21948     21949
     21948     21950     21948     21951     21951     21952     21951     21953
     21951     21954     21954     21955     21954     21956     21954     21957
     21957     21958     21957     21959     21957     21960     21960     21961
     21960     21962     21960     21963     21963     21964     21963     21965
     21963     21966     12752     12753     12752     12754     12752     12755
     12752     12749     12749     12750     12749     12751     12749     12746
     12746     12747     12746     12748     12746     12743     12743     12744
     12743     12745     12743     12740     12740     12741     12740     12742
     12740     12737     12737     12738     12737     12739     12737     12734
     12734     12735     12734     12736     12734     12731     12731     12732
     12731     12733     12731     12728     12728     12729     12728     12730
     12728     12725     12725     12726     12725     12727     12725     12722
     12722     12723     12722     12724     12722     12719     12719     12720
     12719     12721     12719     12716     12716     12717     12716     12718
     12716     12714     12714     12715     12712     12713     12712     12708
     12708     12709     12708     12710     12710     12711     12708     12706
     12706     12707     12706     12701     12701     12702     12701     12703
     12701     12699     12699     12696     12700     12696     12697     12696
     12698     12696     12700     12693     12693     12694     12693     12695
     12693     12690     12690     12691     12690     12692     12690     12677
     12677     12686     12677     12682     12677     12678     12686     12687
     12686     12688     12686     12689     12682     12683     12682     12684
     12682     12685     12678     12679     12678     12680     12678     12681
     12706     12704     12704     12705     12704     12756     12756     12758
     12758     12759     12758     12760     12758     12761     12761     12762
     12761     12763     12761     12764     12764     12765     12764     12766
     12764     12767     12767     12768     12767     12769     12767     12770
     12770     12771     12770     12772     12770     12773     12773     12774
     12773     12775     12773     12776     12776     12777     12776     12778
     12776     12779     12779     12780     12781     12782     12781     12783
     12783     12784     12783     12785     12783     12786     12786     12787
     12786     12788     12786     12789     12789     12790     12789     12791
     12789     12792     12792     12793     12792     12794     12792     12795
     12795     12796     12795     12797     12795     12798     12798     12799
     12798     12800     12798     12801     12801     12802     12801     12803
     12801     12804     12804     12805     12804     12806     12804     12807
     12712     12714     12779     12781     12756     12757     17131     17132
     17131     17133     17131     17134     17131     17135     17135     17136
     17135     17137     17135     17138     17138     17139     17138     17140
     17138     17144     17146     17145     17144     17141     17141     17145
     17141     17142     17141     17143     17146     17147     17146     17148
     17146     17149     17149     17150     17149     17157     17149     17151
     17157     17158     17157     17159     17157     17160     17151     17152
     17152     17154     17152     17153     17154     17155     17154     17156
     17154     17166     17166     17167     17166     17168     17166     17169
     17169     17170     17169     17171     17169     17172     17172     17173
     17172     17174     17174     17175     17174     17176     17176     17177
     17176     17178     17176     17179     17179     17180     17179     17181
     17181     17182     17181     17183     17183     17184     17183     17185
     17183     17186     17186     17187     17186     17188     17188     17189
     17188     17190     17190     17191     17190     17192     17190     17193
     17193     17194     17193     17195     17195     17196     17195     17197
     17197     17198     17197     17199     17197     17200     17200     17201
     17200     17202     17200     17203     17203     17204     17203     17205
     17203     17206     17206     17207     17206     17208     17206     17209
     17209     17210     17209     17211     17209     17212     17160     17161
     17161     17163     17161     17162     17163     17164     17163     17165
     17163     17213     17213     17214     17213     17215     17213     17216
     17216     17217     17216     17218     17216     17219     17219     17220
     17219     17221     17219     17222     17222     17223     17222     17224
     17222     17225     17225     17226     17225     17227     17225     17228
     17228     17229     17228     17230     17228     17231     17231     17232
     17231     17233     17231     17234     17234     17235     17234     17236
     17234     17237     17237     17238     17237     17239     17237     17240
     17240     17241     17240     17242     17240     17243     17243     17244
     17243     17245     17243     17246     17246     17247     17246     17248
     17246     17249     17249     17250     17249     17251     17249     17252
     17252     17253     17252     17254     17252     17255     17255     17256
     17255     17257     17255     17258     17258     17259     17258     17260
     17258     17261      4437      4439      4437      4438      4439      4440
      4437      4483      4483      4484      4483      4485      4483      4480
      4480      4481      4480      4482      4437      4441      4441      4442
      4441      4443      4441      4444      4444      4475      4475      4480
      4475      4476      4476      4477      4476      4478      4476      4479
      4444      4445      4445      4446      4445      4447      4447      4448
      4447      4449      4447      4450      4450      4451      4450      4473
      4473      4474      4473      4475      4450      4452      4452      4453
      4452      4462      4462      4467      4467      4468      4467      4469
      4467      4470      4470      4471      4470      4472      4470      4473
      4462      4463      4463      4464      4463      4465      4463      4466
      4452      4454      4454      4455      4454      4456      4454      4457
      4457      4458      4457      4459      4457      4460      4460      4461
      4460      4462      4460      4486      4486      4487      4486      4488
      4488      4489      4488      4490      4488      4491      4486      4492
      4492      4493      4492      4494      4492      4495      4495      4496
      4495      4497      4495      4498      4498      4499      4498      4500
      4498      4501      4501      4502      4501      4503      4503      4504
      4503      4505      4503      4506      4501      4507      4507      4508
      4507      4509      4507      4510     17262     17263     17262     17264
     17262     17265     17262     17266     17266     17267     17266     17268
     17266     17269     17269     17270     17269     17271     17269     17275
     17277     17276     17275     17272     17272     17276     17272     17273
     17272     17274     17277     17278     17277     17279     17277     17280
     17280     17281     17280     17288     17280     17282     17288     17289
     17288     17290     17288     17291     17282     17283     17283     17285
     17283     17284     17285     17286     17285     17287     17285     17297
     17297     17298     17297     17299     17297     17300     17300     17301
     17300     17302     17300     17303     17303     17304     17303     17305
     17305     17306     17305     17307     17307     17308     17307     17309
     17307     17310     17310     17311     17310     17312     17312     17313
     17312     17314     17314     17315     17314     17316     17314     17317
     17317     17318     17317     17319     17319     17320     17319     17321
     17321     17322     17321     17323     17321     17324     17324     17325
     17324     17326     17326     17327     17326     17328     17328     17329
     17328     17330     17328     17331     17331     17332     17331     17333
     17331     17334     17334     17335     17334     17336     17334     17337
     17337     17338     17337     17339     17337     17340     17340     17341
     17340     17342     17340     17343     17291     17292     17292     17294
     17292     17293     17294     17295     17294     17296     17294     17344
     17344     17345     17344     17346     17344     17347     17347     17348
     17347     17349     17347     17350     17350     17351     17350     17352
     17350     17353     17353     17354     17353     17355     17353     17356
     17356     17357     17356     17358     17356     17359     17359     17360
     17359     17361     17359     17362     17362     17363     17362     17364
     17362     17365     17365     17366     17365     17367     17365     17368
     17368     17369     17368     17370     17368     17371     17371     17372
     17371     17373     17371     17374     17374     17375     17374     17376
     17374     17377     17377     17378     17377     17379     17377     17380
     17380     17381     17380     17382     17380     17383     17383     17384
     17383     17385     17383     17386     17386     17387     17386     17388
     17386     17389     17389     17390     17389     17391     17389     17392
     20179     20180     20179     20184     20179     20188     20180     20181
     20180     20182     20180     20183     20184     20185     20184     20186
     20184     20187     20188     20189     20188     20190     20188     20191
     20179     20192     20192     20193     20192     20194     20192     20195
     20195     20196     20195     20197     20195     20201     20202     20203
     20201     20198     20198     20202     20198     20199     20198     20200
     20203     20204     20203     20205     20203     20206     20206     20207
     20206     20214     20206     20208     20214     20215     20214     20216
     20214     20217     20208     20209     20209     20211     20209     20210
     20211     20212     20211     20213     20211     20223     20223     20224
     20223     20225     20223     20226     20226     20227     20226     20228
     20226     20229     20229     20230     20229     20231     20229     20232
     20232     20233     20232     20234     20232     20235     20235     20236
     20235     20237     20235     20238     20238     20239     20238     20240
     20238     20241     20241     20242     20241     20243     20243     20244
     20243     20245     20245     20246     20245     20247     20245     20248
     20248     20249     20248     20250     20250     20251     20250     20252
     20252     20253     20252     20254     20252     20255     20255     20256
     20255     20257     20255     20258     20258     20259     20258     20260
     20258     20261     20261     20262     20261     20263     20261     20264
     20264     20265     20264     20266     20264     20267     20217     20218
     20218     20220     20218     20219     20220     20221     20220     20222
     20220     20268     20268     20269     20268     20270     20268     20271
     20271     20272     20271     20273     20271     20274     20274     20275
     20274     20276     20274     20277     20277     20278     20277     20279
     20277     20280     20280     20281     20280     20282     20280     20283
     20283     20284     20283     20285     20283     20286     20286     20287
     20286     20288     20286     20289     20289     20290     20289     20291
     20289     20292     20292     20293     20292     20294     20292     20295
     20295     20296     20295     20297     20295     20298     20298     20299
     20298     20300     20298     20301     20301     20302     20301     20303
     20301     20304     20304     20305     20304     20306     20304     20307
     20307     20308     20307     20309     20307     20310     20310     20311
     20310     20312     20310     20313     20313     20314     20313     20315
     20313     20316      8657      8661      8657      8665      8657      8669
      8661      8662      8661      8663      8661      8664      8665      8666
      8665      8667      8665      8668      8669      8670      8669      8671
      8669      8672      8657      8658      8658      8659      8658      8660
      8658      8673      8673      8674      8673      8675      8673      8679
      8680      8681      8679      8676      8676      8680      8676      8677
      8676      8678      8681      8682      8681      8683      8681      8684
      8684      8685      8684      8692      8684      8686      8692      8693
      8692      8694      8692      8695      8686      8687      8687      8689
      8687      8688      8689      8690      8689      8691      8689      8701
      8701      8702      8701      8703      8701      8704      8704      8705
      8704      8706      8704      8707      8707      8708      8707      8709
      8709      8710      8709      8711      8711      8712      8711      8713
      8711      8714      8714      8715      8714      8716      8716      8717
      8716      8718      8718      8719      8718      8720      8718      8721
      8721      8722      8721      8723      8723      8724      8723      8725
      8725      8726      8725      8727      8725      8728      8728      8729
      8728      8730      8730      8731      8730      8732      8732      8733
      8732      8734      8732      8735      8735      8736      8735      8737
      8735      8738      8738      8739      8738      8740      8738      8741
      8741      8742      8741      8743      8741      8744      8744      8745
      8744      8746      8744      8747      8695      8696      8696      8698
      8696      8697      8698      8699      8698      8700      8698      8748
      8748      8749      8748      8750      8748      8751      8751      8752
      8751      8753      8751      8754      8754      8755      8754      8756
      8754      8757      8757      8758      8757      8759      8757      8760
      8760      8761      8760      8762      8760      8763      8763      8764
      8763      8765      8763      8766      8766      8767      8766      8768
      8766      8769      8769      8770      8769      8771      8769      8772
      8772      8773      8772      8774      8772      8775      8775      8776
      8775      8777      8775      8778      8778      8779      8778      8780
      8778      8781      8781      8782      8781      8783      8781      8784
      8784      8785      8784      8786      8784      8787      8787      8788
      8787      8789      8787      8790      8790      8791      8790      8792
      8790      8793      8793      8794      8793      8795      8793      8796
     17393     17394     17393     17395     17393     17396     17393     17397
     17397     17398     17397     17399     17397     17400     17400     17401
     17400     17402     17400     17406     17408     17407     17406     17403
     17403     17407     17403     17404     17403     17405     17408     17409
     17408     17410     17408     17411     17411     17412     17411     17419
     17411     17413     17419     17420     17419     17421     17419     17422
     17413     17414     17414     17416     17414     17415     17416     17417
     17416     17418     17416     17428     17428     17429     17428     17430
     17428     17431     17431     17432     17431     17433     17431     17434
     17434     17435     17434     17436     17436     17437     17436     17438
     17438     17439     17438     17440     17438     17441     17441     17442
     17441     17443     17443     17444     17443     17445     17445     17446
     17445     17447     17445     17448     17448     17449     17448     17450
     17450     17451     17450     17452     17452     17453     17452     17454
     17452     17455     17455     17456     17455     17457     17457     17458
     17457     17459     17459     17460     17459     17461     17459     17462
     17462     17463     17462     17464     17462     17465     17465     17466
     17465     17467     17465     17468     17468     17469     17468     17470
     17468     17471     17471     17472     17471     17473     17471     17474
     17422     17423     17423     17425     17423     17424     17425     17426
     17425     17427     17425     17475     17475     17476     17475     17477
     17475     17478     17478     17479     17478     17480     17478     17481
     17481     17482     17481     17483     17481     17484     17484     17485
     17484     17486     17484     17487     17487     17488     17487     17489
     17487     17490     17490     17491     17490     17492     17490     17493
     17493     17494     17493     17495     17493     17496     17496     17497
     17496     17498     17496     17499     17499     17500     17499     17501
     17499     17502     17502     17503     17502     17504     17502     17505
     17505     17506     17505     17507     17505     17508     17508     17509
     17508     17510     17508     17511     17511     17512     17511     17513
     17511     17514     17514     17515     17514     17516     17514     17517
     17517     17518     17517     17519     17517     17520     17520     17521
     17520     17522     17520     17523      4511      4513      4511      4512
      4513      4514      4511      4557      4557      4558      4557      4559
      4557      4554      4554      4555      4554      4556      4511      4515
      4515      4516      4515      4517      4515      4518      4518      4549
      4549      4554      4549      4550      4550      4551      4550      4552
      4550      4553      4518      4519      4519      4520      4519      4521
      4521      4522      4521      4523      4521      4524      4524      4525
      4524      4547      4547      4548      4547      4549      4524      4526
      4526      4527      4526      4536      4536      4541      4541      4542
      4541      4543      4541      4544      4544      4545      4544      4546
      4544      4547      4536      4537      4537      4538      4537      4539
      4537      4540      4526      4528      4528      4529      4528      4530
      4528      4531      4531      4532      4531      4533      4531      4534
      4534      4535      4534      4536      4534      4560      4560      4561
      4560      4562      4562      4563      4562      4564      4562      4565
      4560      4566      4566      4567      4566      4568      4566      4569
      4569      4570      4569      4571      4569      4572      4572      4573
      4572      4574      4572      4575      4575      4576      4575      4577
      4577      4578      4577      4579      4577      4580      4575      4581
      4581      4582      4581      4583      4581      4584      1065      1066
      1065      1067      1065      1068      1065      1069      1073      1071
      1071      1069      1071      1072      1069      1070      1069      1074
      1082      1081      1074      1075      1074      1076      1074      1080
      1080      1077      1077      1081      1077      1078      1077      1079
      1082      1083      1082      1084      1082      1085      1085      1086
      1085      1093      1085      1087      1093      1094      1093      1095
      1093      1096      1087      1088      1088      1090      1088      1089
      1090      1091      1090      1092      1090      1102      1102      1103
      1102      1104      1102      1105      1105      1106      1105      1107
      1105      1108      1108      1109      1108      1110      1110      1111
      1110      1112      1112      1113      1112      1114      1112      1115
      1115      1116      1115      1117      1117      1118      1117      1119
      1119      1120      1119      1121      1119      1122      1122      1123
      1122      1124      1124      1125      1124      1126      1126      1127
      1126      1128      1126      1129      1129      1130      1129      1131
      1131      1132      1131      1133      1133      1134      1133      1135
      1133      1136      1136      1137      1136      1138      1136      1139
      1139      1140      1139      1141      1139      1142      1142      1143
      1142      1144      1142      1145      1145      1146      1145      1147
      1145      1148      1096      1097      1097      1099      1097      1098
      1099      1100      1099      1101      1099      1149      1149      1150
      1149      1151      1149      1152      1152      1153      1152      1154
      1152      1155      1155      1156      1155      1157      1155      1158
      1158      1159      1158      1160      1158      1161      1161      1162
      1161      1163      1161      1164      1164      1165      1164      1166
      1164      1167      1167      1168      1167      1169      1167      1170
      1170      1171      1170      1172      1170      1173      1173      1174
      1173      1175      1173      1176      1176      1177      1176      1178
      1176      1179      1179      1180      1179      1181      1179      1182
      1182      1183      1182      1184      1182      1185      1185      1186
      1185      1187      1185      1188      1188      1189      1188      1190
      1188      1191      1191      1192      1191      1193      1191      1194
      1194      1195      1194      1196      1194      1197      4585      4587
      4585      4586      4587      4588      4585      4631      4631      4632
      4631      4633      4631      4628      4628      4629      4628      4630
      4585      4589      4589      4590      4589      4591      4589      4592
      4592      4623      4623      4628      4623      4624      4624      4625
      4624      4626      4624      4627      4592      4593      4593      4594
      4593      4595      4595      4596      4595      4597      4595      4598
      4598      4599      4598      4621      4621      4622      4621      4623
      4598      4600      4600      4601      4600      4610      4610      4615
      4615      4616      4615      4617      4615      4618      4618      4619
      4618      4620      4618      4621      4610      4611      4611      4612
      4611      4613      4611      4614      4600      4602      4602      4603
      4602      4604      4602      4605      4605      4606      4605      4607
      4605      4608      4608      4609      4608      4610      4608      4634
      4634      4635      4634      4636      4636      4637      4636      4638
      4636      4639      4634      4640      4640      4641      4640      4642
      4640      4643      4643      4644      4643      4645      4643      4646
      4646      4647      4646      4648      4646      4649      4649      4650
      4649      4651      4651      4652      4651      4653      4651      4654
      4649      4655      4655      4656      4655      4657      4655      4658
     12883     12884     12883     12885     12883     12886     12883     12880
     12880     12881     12880     12882     12880     12877     12877     12878
     12877     12879     12877     12874     12874     12875     12874     12876
     12874     12871     12871     12872     12871     12873     12871     12868
     12868     12869     12868     12870     12868     12865     12865     12866
     12865     12867     12865     12862     12862     12863     12862     12864
     12862     12859     12859     12860     12859     12861     12859     12856
     12856     12857     12856     12858     12856     12853     12853     12854
     12853     12855     12853     12850     12850     12851     12850     12852
     12850     12847     12847     12848     12847     12849     12847     12845
     12845     12846     12843     12844     12843     12839     12839     12840
     12839     12841     12841     12842     12839     12837     12837     12838
     12837     12832     12832     12833     12832     12834     12832     12830
     12830     12827     12831     12827     12828     12827     12829     12827
     12831     12824     12824     12825     12824     12826     12824     12821
     12821     12822     12821     12823     12821     12808     12808     12817
     12808     12813     12808     12809     12817     12818     12817     12819
     12817     12820     12813     12814     12813     12815     12813     12816
     12809     12810     12809     12811     12809     12812     12837     12835
     12835     12836     12835     12887     12887     12889     12889     12890
     12889     12891     12889     12892     12892     12893     12892     12894
     12892     12895     12895     12896     12895     12897     12895     12898
     12898     12899     12898     12900     12898     12901     12901     12902
     12901     12903     12901     12904     12904     12905     12904     12906
     12904     12907     12907     12908     12907     12909     12907     12910
     12910     12911     12912     12913     12912     12914     12914     12915
     12914     12916     12914     12917     12917     12918     12917     12919
     12917     12920     12920     12921     12920     12922     12920     12923
     12923     12924     12923     12925     12923     12926     12926     12927
     12926     12928     12926     12929     12929     12930     12929     12931
     12929     12932     12932     12933     12932     12934     12932     12935
     12935     12936     12935     12937     12935     12938     12843     12845
     12910     12912     12887     12888     17524     17525     17524     17526
     17524     17527     17524     17528     17528     17529     17528     17530
     17528     17531     17531     17532     17531     17533     17531     17537
     17539     17538     17537     17534     17534     17538     17534     17535
     17534     17536     17539     17540     17539     17541     17539     17542
     17542     17543     17542     17550     17542     17544     17550     17551
     17550     17552     17550     17553     17544     17545     17545     17547
     17545     17546     17547     17548     17547     17549     17547     17559
     17559     17560     17559     17561     17559     17562     17562     17563
     17562     17564     17562     17565     17565     17566     17565     17567
     17567     17568     17567     17569     17569     17570     17569     17571
     17569     17572     17572     17573     17572     17574     17574     17575
     17574     17576     17576     17577     17576     17578     17576     17579
     17579     17580     17579     17581     17581     17582     17581     17583
     17583     17584     17583     17585     17583     17586     17586     17587
     17586     17588     17588     17589     17588     17590     17590     17591
     17590     17592     17590     17593     17593     17594     17593     17595
     17593     17596     17596     17597     17596     17598     17596     17599
     17599     17600     17599     17601     17599     17602     17602     17603
     17602     17604     17602     17605     17553     17554     17554     17556
     17554     17555     17556     17557     17556     17558     17556     17606
     17606     17607     17606     17608     17606     17609     17609     17610
     17609     17611     17609     17612     17612     17613     17612     17614
     17612     17615     17615     17616     17615     17617     17615     17618
     17618     17619     17618     17620     17618     17621     17621     17622
     17621     17623     17621     17624     17624     17625     17624     17626
     17624     17627     17627     17628     17627     17629     17627     17630
     17630     17631     17630     17632     17630     17633     17633     17634
     17633     17635     17633     17636     17636     17637     17636     17638
     17636     17639     17639     17640     17639     17641     17639     17642
     17642     17643     17642     17644     17642     17645     17645     17646
     17645     17647     17645     17648     17648     17649     17648     17650
     17648     17651     17651     17652     17651     17653     17651     17654
      7460      7461      7460      7462      7460      7463      7460      7464
      7464      7465      7464      7466      7464      7467      7467      7468
      7467      7469      7467      7473      7475      7474      7473      7470
      7470      7474      7470      7471      7470      7472      7475      7476
      7475      7477      7475      7478      7478      7479      7478      7486
      7478      7480      7486      7487      7486      7488      7486      7489
      7480      7481      7481      7483      7481      7482      7483      7484
      7483      7485      7483      7495      7495      7496      7495      7497
      7495      7498      7498      7499      7498      7500      7498      7501
      7501      7502      7501      7503      7501      7504      7504      7505
      7504      7506      7504      7507      7507      7508      7507      7509
      7507      7510      7510      7511      7510      7512      7510      7513
      7513      7514      7513      7515      7515      7516      7515      7517
      7517      7518      7517      7519      7517      7520      7520      7521
      7520      7522      7520      7523      7523      7524      7523      7525
      7523      7526      7526      7527      7526      7528      7526      7529
      7529      7530      7529      7531      7529      7532      7532      7533
      7532      7534      7532      7535      7535      7536      7535      7537
      7535      7538      7538      7539      7538      7540      7538      7541
      7489      7490      7490      7492      7490      7491      7492      7493
      7492      7494      7492      7542      7542      7543      7542      7544
      7542      7545      7545      7546      7545      7547      7545      7548
      7548      7549      7548      7550      7548      7551      7551      7552
      7551      7553      7551      7554      7554      7555      7554      7556
      7554      7557      7557      7558      7557      7559      7557      7560
      7560      7561      7560      7562      7560      7563      7563      7564
      7563      7565      7563      7566      7566      7567      7566      7568
      7566      7569      7569      7570      7569      7571      7569      7572
      7572      7573      7572      7574      7572      7575      7575      7576
      7575      7577      7575      7578      7578      7579      7578      7580
      7578      7581      7581      7582      7581      7583      7581      7584
      7584      7585      7584      7586      7584      7587      7587      7588
      7587      7589      7587      7590      8797      8801      8797      8805
      8797      8809      8801      8802      8801      8803      8801      8804
      8805      8806      8805      8807      8805      8808      8809      8810
      8809      8811      8809      8812      8797      8798      8798      8799
      8798      8800      8798      8813      8813      8814      8813      8815
      8813      8819      8820      8821      8819      8816      8816      8820
      8816      8817      8816      8818      8821      8822      8821      8823
      8821      8824      8824      8825      8824      8832      8824      8826
      8832      8833      8832      8834      8832      8835      8826      8827
      8827      8829      8827      8828      8829      8830      8829      8831
      8829      8841      8841      8842      8841      8843      8841      8844
      8844      8845      8844      8846      8844      8847      8847      8848
      8847      8849      8849      8850      8849      8851      8851      8852
      8851      8853      8851      8854      8854      8855      8854      8856
      8856      8857      8856      8858      8858      8859      8858      8860
      8858      8861      8861      8862      8861      8863      8863      8864
      8863      8865      8865      8866      8865      8867      8865      8868
      8868      8869      8868      8870      8870      8871      8870      8872
      8872      8873      8872      8874      8872      8875      8875      8876
      8875      8877      8875      8878      8878      8879      8878      8880
      8878      8881      8881      8882      8881      8883      8881      8884
      8884      8885      8884      8886      8884      8887      8835      8836
      8836      8838      8836      8837      8838      8839      8838      8840
      8838      8888      8888      8889      8888      8890      8888      8891
      8891      8892      8891      8893      8891      8894      8894      8895
      8894      8896      8894      8897      8897      8898      8897      8899
      8897      8900      8900      8901      8900      8902      8900      8903
      8903      8904      8903      8905      8903      8906      8906      8907
      8906      8908      8906      8909      8909      8910      8909      8911
      8909      8912      8912      8913      8912      8914      8912      8915
      8915      8916      8915      8917      8915      8918      8918      8919
      8918      8920      8918      8921      8921      8922      8921      8923
      8921      8924      8924      8925      8924      8926      8924      8927
      8927      8928      8927      8929      8927      8930      8930      8931
      8930      8932      8930      8933      8933      8934      8933      8935
      8933      8936      4659      4661      4659      4660      4661      4662
      4659      4705      4705      4706      4705      4707      4705      4702
      4702      4703      4702      4704      4659      4663      4663      4664
      4663      4665      4663      4666      4666      4697      4697      4702
      4697      4698      4698      4699      4698      4700      4698      4701
      4666      4667      4667      4668      4667      4669      4669      4670
      4669      4671      4669      4672      4672      4673      4672      4695
      4695      4696      4695      4697      4672      4674      4674      4675
      4674      4684      4684      4689      4689      4690      4689      4691
      4689      4692      4692      4693      4692      4694      4692      4695
      4684      4685      4685      4686      4685      4687      4685      4688
      4674      4676      4676      4677      4676      4678      4676      4679
      4679      4680      4679      4681      4679      4682      4682      4683
      4682      4684      4682      4708      4708      4709      4708      4710
      4710      4711      4710      4712      4710      4713      4708      4714
      4714      4715      4714      4716      4714      4717      4717      4718
      4717      4719      4717      4720      4720      4721      4720      4722
      4720      4723      4723      4724      4723      4725      4725      4726
      4725      4727      4725      4728      4723      4729      4729      4730
      4729      4731      4729      4732      8937      8941      8937      8945
      8937      8949      8941      8942      8941      8943      8941      8944
      8945      8946      8945      8947      8945      8948      8949      8950
      8949      8951      8949      8952      8937      8938      8938      8939
      8938      8940      8938      8953      8953      8954      8953      8955
      8953      8959      8960      8961      8959      8956      8956      8960
      8956      8957      8956      8958      8961      8962      8961      8963
      8961      8964      8964      8965      8964      8972      8964      8966
      8972      8973      8972      8974      8972      8975      8966      8967
      8967      8969      8967      8968      8969      8970      8969      8971
      8969      8981      8981      8982      8981      8983      8981      8984
      8984      8985      8984      8986      8984      8987      8987      8988
      8987      8989      8989      8990      8989      8991      8991      8992
      8991      8993      8991      8994      8994      8995      8994      8996
      8996      8997      8996      8998      8998      8999      8998      9000
      8998      9001      9001      9002      9001      9003      9003      9004
      9003      9005      9005      9006      9005      9007      9005      9008
      9008      9009      9008      9010      9010      9011      9010      9012
      9012      9013      9012      9014      9012      9015      9015      9016
      9015      9017      9015      9018      9018      9019      9018      9020
      9018      9021      9021      9022      9021      9023      9021      9024
      9024      9025      9024      9026      9024      9027      8975      8976
      8976      8978      8976      8977      8978      8979      8978      8980
      8978      9028      9028      9029      9028      9030      9028      9031
      9031      9032      9031      9033      9031      9034      9034      9035
      9034      9036      9034      9037      9037      9038      9037      9039
      9037      9040      9040      9041      9040      9042      9040      9043
      9043      9044      9043      9045      9043      9046      9046      9047
      9046      9048      9046      9049      9049      9050      9049      9051
      9049      9052      9052      9053      9052      9054      9052      9055
      9055      9056      9055      9057      9055      9058      9058      9059
      9058      9060      9058      9061      9061      9062      9061      9063
      9061      9064      9064      9065      9064      9066      9064      9067
      9067      9068      9067      9069      9067      9070      9070      9071
      9070      9072      9070      9073      9073      9074      9073      9075
      9073      9076      9077      9081      9077      9085      9077      9089
      9081      9082      9081      9083      9081      9084      9085      9086
      9085      9087      9085      9088      9089      9090      9089      9091
      9089      9092      9077      9078      9078      9079      9078      9080
      9078      9093      9093      9094      9093      9095      9093      9099
      9100      9101      9099      9096      9096      9100      9096      9097
      9096      9098      9101      9102      9101      9103      9101      9104
      9104      9105      9104      9112      9104      9106      9112      9113
      9112      9114      9112      9115      9106      9107      9107      9109
      9107      9108      9109      9110      9109      9111      9109      9121
      9121      9122      9121      9123      9121      9124      9124      9125
      9124      9126      9124      9127      9127      9128      9127      9129
      9129      9130      9129      9131      9131      9132      9131      9133
      9131      9134      9134      9135      9134      9136      9136      9137
      9136      9138      9138      9139      9138      9140      9138      9141
      9141      9142      9141      9143      9143      9144      9143      9145
      9145      9146      9145      9147      9145      9148      9148      9149
      9148      9150      9150      9151      9150      9152      9152      9153
      9152      9154      9152      9155      9155      9156      9155      9157
      9155      9158      9158      9159      9158      9160      9158      9161
      9161      9162      9161      9163      9161      9164      9164      9165
      9164      9166      9164      9167      9115      9116      9116      9118
      9116      9117      9118      9119      9118      9120      9118      9168
      9168      9169      9168      9170      9168      9171      9171      9172
      9171      9173      9171      9174      9174      9175      9174      9176
      9174      9177      9177      9178      9177      9179      9177      9180
      9180      9181      9180      9182      9180      9183      9183      9184
      9183      9185      9183      9186      9186      9187      9186      9188
      9186      9189      9189      9190      9189      9191      9189      9192
      9192      9193      9192      9194      9192      9195      9195      9196
      9195      9197      9195      9198      9198      9199      9198      9200
      9198      9201      9201      9202      9201      9203      9201      9204
      9204      9205      9204      9206      9204      9207      9207      9208
      9207      9209      9207      9210      9210      9211      9210      9212
      9210      9213      9213      9214      9213      9215      9213      9216
      1198      1199      1198      1200      1198      1201      1198      1202
      1206      1204      1204      1202      1204      1205      1202      1203
      1202      1207      1215      1214      1207      1208      1207      1209
      1207      1213      1213      1210      1210      1214      1210      1211
      1210      1212      1215      1216      1215      1217      1215      1218
      1218      1219      1218      1226      1218      1220      1226      1227
      1226      1228      1226      1229      1220      1221      1221      1223
      1221      1222      1223      1224      1223      1225      1223      1235
      1235      1236      1235      1237      1235      1238      1238      1239
      1238      1240      1238      1241      1241      1242      1241      1243
      1243      1244      1243      1245      1245      1246      1245      1247
      1245      1248      1248      1249      1248      1250      1250      1251
      1250      1252      1252      1253      1252      1254      1252      1255
      1255      1256      1255      1257      1257      1258      1257      1259
      1259      1260      1259      1261      1259      1262      1262      1263
      1262      1264      1264      1265      1264      1266      1266      1267
      1266      1268      1266      1269      1269      1270      1269      1271
      1269      1272      1272      1273      1272      1274      1272      1275
      1275      1276      1275      1277      1275      1278      1278      1279
      1278      1280      1278      1281      1229      1230      1230      1232
      1230      1231      1232      1233      1232      1234      1232      1282
      1282      1283      1282      1284      1282      1285      1285      1286
      1285      1287      1285      1288      1288      1289      1288      1290
      1288      1291      1291      1292      1291      1293      1291      1294
      1294      1295      1294      1296      1294      1297      1297      1298
      1297      1299      1297      1300      1300      1301      1300      1302
      1300      1303      1303      1304      1303      1305      1303      1306
      1306      1307      1306      1308      1306      1309      1309      1310
      1309      1311      1309      1312      1312      1313      1312      1314
      1312      1315      1315      1316      1315      1317      1315      1318
      1318      1319      1318      1320      1318      1321      1321      1322
      1321      1323      1321      1324      1324      1325      1324      1326
      1324      1327      1327      1328      1327      1329      1327      1330
      4733      4735      4733      4734      4735      4736      4733      4779
      4779      4780      4779      4781      4779      4776      4776      4777
      4776      4778      4733      4737      4737      4738      4737      4739
      4737      4740      4740      4771      4771      4776      4771      4772
      4772      4773      4772      4774      4772      4775      4740      4741
      4741      4742      4741      4743      4743      4744      4743      4745
      4743      4746      4746      4747      4746      4769      4769      4770
      4769      4771      4746      4748      4748      4749      4748      4758
      4758      4763      4763      4764      4763      4765      4763      4766
      4766      4767      4766      4768      4766      4769      4758      4759
      4759      4760      4759      4761      4759      4762      4748      4750
      4750      4751      4750      4752      4750      4753      4753      4754
      4753      4755      4753      4756      4756      4757      4756      4758
      4756      4782      4782      4783      4782      4784      4784      4785
      4784      4786      4784      4787      4782      4788      4788      4789
      4788      4790      4788      4791      4791      4792      4791      4793
      4791      4794      4794      4795      4794      4796      4794      4797
      4797      4798      4797      4799      4799      4800      4799      4801
      4799      4802      4797      4803      4803      4804      4803      4805
      4803      4806     13014     13015     13014     13016     13014     13017
     13014     13011     13011     13012     13011     13013     13011     13008
     13008     13009     13008     13010     13008     13005     13005     13006
     13005     13007     13005     13002     13002     13003     13002     13004
     13002     12999     12999     13000     12999     13001     12999     12996
     12996     12997     12996     12998     12996     12993     12993     12994
     12993     12995     12993     12990     12990     12991     12990     12992
     12990     12987     12987     12988     12987     12989     12987     12984
     12984     12985     12984     12986     12984     12981     12981     12982
     12981     12983     12981     12978     12978     12979     12978     12980
     12978     12976     12976     12977     12974     12975     12974     12970
     12970     12971     12970     12972     12972     12973     12970     12968
     12968     12969     12968     12963     12963     12964     12963     12965
     12963     12961     12961     12958     12962     12958     12959     12958
     12960     12958     12962     12955     12955     12956     12955     12957
     12955     12952     12952     12953     12952     12954     12952     12939
     12939     12948     12939     12944     12939     12940     12948     12949
     12948     12950     12948     12951     12944     12945     12944     12946
     12944     12947     12940     12941     12940     12942     12940     12943
     12968     12966     12966     12967     12966     13018     13018     13020
     13020     13021     13020     13022     13020     13023     13023     13024
     13023     13025     13023     13026     13026     13027     13026     13028
     13026     13029     13029     13030     13029     13031     13029     13032
     13032     13033     13032     13034     13032     13035     13035     13036
     13035     13037     13035     13038     13038     13039     13038     13040
     13038     13041     13041     13042     13043     13044     13043     13045
     13045     13046     13045     13047     13045     13048     13048     13049
     13048     13050     13048     13051     13051     13052     13051     13053
     13051     13054     13054     13055     13054     13056     13054     13057
     13057     13058     13057     13059     13057     13060     13060     13061
     13060     13062     13060     13063     13063     13064     13063     13065
     13063     13066     13066     13067     13066     13068     13066     13069
     12974     12976     13041     13043     13018     13019      1331      1332
      1331      1333      1331      1334      1331      1335      1339      1337
      1337      1335      1337      1338      1335      1336      1335      1340
      1348      1347      1340      1341      1340      1342      1340      1346
      1346      1343      1343      1347      1343      1344      1343      1345
      1348      1349      1348      1350      1348      1351      1351      1352
      1351      1359      1351      1353      1359      1360      1359      1361
      1359      1362      1353      1354      1354      1356      1354      1355
      1356      1357      1356      1358      1356      1368      1368      1369
      1368      1370      1368      1371      1371      1372      1371      1373
      1371      1374      1374      1375      1374      1376      1376      1377
      1376      1378      1378      1379      1378      1380      1378      1381
      1381      1382      1381      1383      1383      1384      1383      1385
      1385      1386      1385      1387      1385      1388      1388      1389
      1388      1390      1390      1391      1390      1392      1392      1393
      1392      1394      1392      1395      1395      1396      1395      1397
      1397      1398      1397      1399      1399      1400      1399      1401
      1399      1402      1402      1403      1402      1404      1402      1405
      1405      1406      1405      1407      1405      1408      1408      1409
      1408      1410      1408      1411      1411      1412      1411      1413
      1411      1414      1362      1363      1363      1365      1363      1364
      1365      1366      1365      1367      1365      1415      1415      1416
      1415      1417      1415      1418      1418      1419      1418      1420
      1418      1421      1421      1422      1421      1423      1421      1424
      1424      1425      1424      1426      1424      1427      1427      1428
      1427      1429      1427      1430      1430      1431      1430      1432
      1430      1433      1433      1434      1433      1435      1433      1436
      1436      1437      1436      1438      1436      1439      1439      1440
      1439      1441      1439      1442      1442      1443      1442      1444
      1442      1445      1445      1446      1445      1447      1445      1448
      1448      1449      1448      1450      1448      1451      1451      1452
      1451      1453      1451      1454      1454      1455      1454      1456
      1454      1457      1457      1458      1457      1459      1457      1460
      1460      1461      1460      1462      1460      1463      7591      7592
      7591      7593      7591      7594      7591      7595      7595      7596
      7595      7597      7595      7598      7598      7599      7598      7600
      7598      7604      7606      7605      7604      7601      7601      7605
      7601      7602      7601      7603      7606      7607      7606      7608
      7606      7609      7609      7610      7609      7617      7609      7611
      7617      7618      7617      7619      7617      7620      7611      7612
      7612      7614      7612      7613      7614      7615      7614      7616
      7614      7626      7626      7627      7626      7628      7626      7629
      7629      7630      7629      7631      7629      7632      7632      7633
      7632      7634      7632      7635      7635      7636      7635      7637
      7635      7638      7638      7639      7638      7640      7638      7641
      7641      7642      7641      7643      7641      7644      7644      7645
      7644      7646      7646      7647      7646      7648      7648      7649
      7648      7650      7648      7651      7651      7652      7651      7653
      7651      7654      7654      7655      7654      7656      7654      7657
      7657      7658      7657      7659      7657      7660      7660      7661
      7660      7662      7660      7663      7663      7664      7663      7665
      7663      7666      7666      7667      7666      7668      7666      7669
      7669      7670      7669      7671      7669      7672      7620      7621
      7621      7623      7621      7622      7623      7624      7623      7625
      7623      7673      7673      7674      7673      7675      7673      7676
      7676      7677      7676      7678      7676      7679      7679      7680
      7679      7681      7679      7682      7682      7683      7682      7684
      7682      7685      7685      7686      7685      7687      7685      7688
      7688      7689      7688      7690      7688      7691      7691      7692
      7691      7693      7691      7694      7694      7695      7694      7696
      7694      7697      7697      7698      7697      7699      7697      7700
      7700      7701      7700      7702      7700      7703      7703      7704
      7703      7705      7703      7706      7706      7707      7706      7708
      7706      7709      7709      7710      7709      7711      7709      7712
      7712      7713      7712      7714      7712      7715      7715      7716
      7715      7717      7715      7718      7718      7719      7718      7720
      7718      7721      4807      4809      4807      4808      4809      4810
      4807      4853      4853      4854      4853      4855      4853      4850
      4850      4851      4850      4852      4807      4811      4811      4812
      4811      4813      4811      4814      4814      4845      4845      4850
      4845      4846      4846      4847      4846      4848      4846      4849
      4814      4815      4815      4816      4815      4817      4817      4818
      4817      4819      4817      4820      4820      4821      4820      4843
      4843      4844      4843      4845      4820      4822      4822      4823
      4822      4832      4832      4837      4837      4838      4837      4839
      4837      4840      4840      4841      4840      4842      4840      4843
      4832      4833      4833      4834      4833      4835      4833      4836
      4822      4824      4824      4825      4824      4826      4824      4827
      4827      4828      4827      4829      4827      4830      4830      4831
      4830      4832      4830      4856      4856      4857      4856      4858
      4858      4859      4858      4860      4858      4861      4856      4862
      4862      4863      4862      4864      4862      4865      4865      4866
      4865      4867      4865      4868      4868      4869      4868      4870
      4868      4871      4871      4872      4871      4873      4873      4874
      4873      4875      4873      4876      4871      4877      4877      4878
      4877      4879      4877      4880      4881      4883      4881      4882
      4883      4884      4881      4927      4927      4928      4927      4929
      4927      4924      4924      4925      4924      4926      4881      4885
      4885      4886      4885      4887      4885      4888      4888      4919
      4919      4924      4919      4920      4920      4921      4920      4922
      4920      4923      4888      4889      4889      4890      4889      4891
      4891      4892      4891      4893      4891      4894      4894      4895
      4894      4917      4917      4918      4917      4919      4894      4896
      4896      4897      4896      4906      4906      4911      4911      4912
      4911      4913      4911      4914      4914      4915      4914      4916
      4914      4917      4906      4907      4907      4908      4907      4909
      4907      4910      4896      4898      4898      4899      4898      4900
      4898      4901      4901      4902      4901      4903      4901      4904
      4904      4905      4904      4906      4904      4930      4930      4931
      4930      4932      4932      4933      4932      4934      4932      4935
      4930      4936      4936      4937      4936      4938      4936      4939
      4939      4940      4939      4941      4939      4942      4942      4943
      4942      4944      4942      4945      4945      4946      4945      4947
      4947      4948      4947      4949      4947      4950      4945      4951
      4951      4952      4951      4953      4951      4954     21987     21988
     21987     21983     21987     21967     21987     21992     21967     21968
     21967     21969     21969     21970     21967     21971     21971     21972
     21971     21973     21973     21974     21971     21975     21975     21976
     21975     21977     21977     21978     21975     21979     21979     21980
     21979     21983     21983     21984     21983     21985     21985     21986
     21979     21981     21981     21982     21992     21989     21989     21993
     21989     21990     21989     21991     21993     21994     21994     21995
     21994     21996     21994     21997     21997     21998     21997     22005
     21997     21999     22005     22006     22005     22007     22005     22008
     21999     22000     22000     22002     22000     22001     22002     22003
     22002     22004     22002     22014     22014     22015     22014     22016
     22014     22017     22017     22018     22017     22019     22017     22020
     22020     22021     22020     22022     22022     22023     22022     22024
     22024     22025     22024     22026     22024     22027     22027     22028
     22027     22029     22029     22030     22029     22031     22031     22032
     22031     22033     22031     22034     22034     22035     22034     22036
     22036     22037     22036     22038     22038     22039     22038     22040
     22038     22041     22041     22042     22041     22043     22043     22044
     22043     22045     22045     22046     22045     22047     22045     22048
     22048     22049     22048     22050     22048     22051     22051     22052
     22051     22053     22051     22054     22054     22055     22054     22056
     22054     22057     22057     22058     22057     22059     22057     22060
     22008     22009     22009     22011     22009     22010     22011     22012
     22011     22013     22011     22061     22061     22062     22061     22063
     22061     22064     22064     22065     22064     22066     22064     22067
     22067     22068     22067     22069     22067     22070     22070     22071
     22070     22072     22070     22073     22073     22074     22073     22075
     22073     22076     22076     22077     22076     22078     22076     22079
     22079     22080     22079     22081     22079     22082     22082     22083
     22082     22084     22082     22085     22085     22086     22085     22087
     22085     22088     22088     22089     22088     22090     22088     22091
     22091     22092     22091     22093     22091     22094     22094     22095
     22094     22096     22094     22097     22097     22098     22097     22099
     22097     22100     22100     22101     22100     22102     22100     22103
     22103     22104     22103     22105     22103     22106     22106     22107
     22106     22108     22106     22109      1464      1465      1464      1466
      1464      1467      1464      1468      1472      1470      1470      1468
      1470      1471      1468      1469      1468      1473      1481      1480
      1473      1474      1473      1475      1473      1479      1479      1476
      1476      1480      1476      1477      1476      1478      1481      1482
      1481      1483      1481      1484      1484      1485      1484      1492
      1484      1486      1492      1493      1492      1494      1492      1495
      1486      1487      1487      1489      1487      1488      1489      1490
      1489      1491      1489      1501      1501      1502      1501      1503
      1501      1504      1504      1505      1504      1506      1504      1507
      1507      1508      1507      1509      1509      1510      1509      1511
      1511      1512      1511      1513      1511      1514      1514      1515
      1514      1516      1516      1517      1516      1518      1518      1519
      1518      1520      1518      1521      1521      1522      1521      1523
      1523      1524      1523      1525      1525      1526      1525      1527
      1525      1528      1528      1529      1528      1530      1530      1531
      1530      1532      1532      1533      1532      1534      1532      1535
      1535      1536      1535      1537      1535      1538      1538      1539
      1538      1540      1538      1541      1541      1542      1541      1543
      1541      1544      1544      1545      1544      1546      1544      1547
      1495      1496      1496      1498      1496      1497      1498      1499
      1498      1500      1498      1548      1548      1549      1548      1550
      1548      1551      1551      1552      1551      1553      1551      1554
      1554      1555      1554      1556      1554      1557      1557      1558
      1557      1559      1557      1560      1560      1561      1560      1562
      1560      1563      1563      1564      1563      1565      1563      1566
      1566      1567      1566      1568      1566      1569      1569      1570
      1569      1571      1569      1572      1572      1573      1572      1574
      1572      1575      1575      1576      1575      1577      1575      1578
      1578      1579      1578      1580      1578      1581      1581      1582
      1581      1583      1581      1584      1584      1585      1584      1586
      1584      1587      1587      1588      1587      1589      1587      1590
      1590      1591      1590      1592      1590      1593      1593      1594
      1593      1595      1593      1596     13145     13146     13145     13147
     13145     13148     13145     13142     13142     13143     13142     13144
     13142     13139     13139     13140     13139     13141     13139     13136
     13136     13137     13136     13138     13136     13133     13133     13134
     13133     13135     13133     13130     13130     13131     13130     13132
     13130     13127     13127     13128     13127     13129     13127     13124
     13124     13125     13124     13126     13124     13121     13121     13122
     13121     13123     13121     13118     13118     13119     13118     13120
     13118     13115     13115     13116     13115     13117     13115     13112
     13112     13113     13112     13114     13112     13109     13109     13110
     13109     13111     13109     13107     13107     13108     13105     13106
     13105     13101     13101     13102     13101     13103     13103     13104
     13101     13099     13099     13100     13099     13094     13094     13095
     13094     13096     13094     13092     13092     13089     13093     13089
     13090     13089     13091     13089     13093     13086     13086     13087
     13086     13088     13086     13083     13083     13084     13083     13085
     13083     13070     13070     13079     13070     13075     13070     13071
     13079     13080     13079     13081     13079     13082     13075     13076
     13075     13077     13075     13078     13071     13072     13071     13073
     13071     13074     13099     13097     13097     13098     13097     13149
     13149     13151     13151     13152     13151     13153     13151     13154
     13154     13155     13154     13156     13154     13157     13157     13158
     13157     13159     13157     13160     13160     13161     13160     13162
     13160     13163     13163     13164     13163     13165     13163     13166
     13166     13167     13166     13168     13166     13169     13169     13170
     13169     13171     13169     13172     13172     13173     13174     13175
     13174     13176     13176     13177     13176     13178     13176     13179
     13179     13180     13179     13181     13179     13182     13182     13183
     13182     13184     13182     13185     13185     13186     13185     13187
     13185     13188     13188     13189     13188     13190     13188     13191
     13191     13192     13191     13193     13191     13194     13194     13195
     13194     13196     13194     13197     13197     13198     13197     13199
     13197     13200     13105     13107     13172     13174     13149     13150
      7722      7723      7722      7724      7722      7725      7722      7726
      7726      7727      7726      7728      7726      7729      7729      7730
      7729      7731      7729      7735      7737      7736      7735      7732
      7732      7736      7732      7733      7732      7734      7737      7738
      7737      7739      7737      7740      7740      7741      7740      7748
      7740      7742      7748      7749      7748      7750      7748      7751
      7742      7743      7743      7745      7743      7744      7745      7746
      7745      7747      7745      7757      7757      7758      7757      7759
      7757      7760      7760      7761      7760      7762      7760      7763
      7763      7764      7763      7765      7763      7766      7766      7767
      7766      7768      7766      7769      7769      7770      7769      7771
      7769      7772      7772      7773      7772      7774      7772      7775
      7775      7776      7775      7777      7777      7778      7777      7779
      7779      7780      7779      7781      7779      7782      7782      7783
      7782      7784      7782      7785      7785      7786      7785      7787
      7785      7788      7788      7789      7788      7790      7788      7791
      7791      7792      7791      7793      7791      7794      7794      7795
      7794      7796      7794      7797      7797      7798      7797      7799
      7797      7800      7800      7801      7800      7802      7800      7803
      7751      7752      7752      7754      7752      7753      7754      7755
      7754      7756      7754      7804      7804      7805      7804      7806
      7804      7807      7807      7808      7807      7809      7807      7810
      7810      7811      7810      7812      7810      7813      7813      7814
      7813      7815      7813      7816      7816      7817      7816      7818
      7816      7819      7819      7820      7819      7821      7819      7822
      7822      7823      7822      7824      7822      7825      7825      7826
      7825      7827      7825      7828      7828      7829      7828      7830
      7828      7831      7831      7832      7831      7833      7831      7834
      7834      7835      7834      7836      7834      7837      7837      7838
      7837      7839      7837      7840      7840      7841      7840      7842
      7840      7843      7843      7844      7843      7845      7843      7846
      7846      7847      7846      7848      7846      7849      7849      7850
      7849      7851      7849      7852     13276     13277     13276     13278
     13276     13279     13276     13273     13273     13274     13273     13275
     13273     13270     13270     13271     13270     13272     13270     13267
     13267     13268     13267     13269     13267     13264     13264     13265
     13264     13266     13264     13261     13261     13262     13261     13263
     13261     13258     13258     13259     13258     13260     13258     13255
     13255     13256     13255     13257     13255     13252     13252     13253
     13252     13254     13252     13249     13249     13250     13249     13251
     13249     13246     13246     13247     13246     13248     13246     13243
     13243     13244     13243     13245     13243     13240     13240     13241
     13240     13242     13240     13238     13238     13239     13236     13237
     13236     13232     13232     13233     13232     13234     13234     13235
     13232     13230     13230     13231     13230     13225     13225     13226
     13225     13227     13225     13223     13223     13220     13224     13220
     13221     13220     13222     13220     13224     13217     13217     13218
     13217     13219     13217     13214     13214     13215     13214     13216
     13214     13201     13201     13210     13201     13206     13201     13202
     13210     13211     13210     13212     13210     13213     13206     13207
     13206     13208     13206     13209     13202     13203     13202     13204
     13202     13205     13230     13228     13228     13229     13228     13280
     13280     13282     13282     13283     13282     13284     13282     13285
     13285     13286     13285     13287     13285     13288     13288     13289
     13288     13290     13288     13291     13291     13292     13291     13293
     13291     13294     13294     13295     13294     13296     13294     13297
     13297     13298     13297     13299     13297     13300     13300     13301
     13300     13302     13300     13303     13303     13304     13305     13306
     13305     13307     13307     13308     13307     13309     13307     13310
     13310     13311     13310     13312     13310     13313     13313     13314
     13313     13315     13313     13316     13316     13317     13316     13318
     13316     13319     13319     13320     13319     13321     13319     13322
     13322     13323     13322     13324     13322     13325     13325     13326
     13325     13327     13325     13328     13328     13329     13328     13330
     13328     13331     13236     13238     13303     13305     13280     13281
     20317     20318     20317     20322     20317     20326     20318     20319
     20318     20320     20318     20321     20322     20323     20322     20324
     20322     20325     20326     20327     20326     20328     20326     20329
     20317     20330     20330     20331     20330     20332     20330     20333
     20333     20334     20333     20335     20333     20339     20340     20341
     20339     20336     20336     20340     20336     20337     20336     20338
     20341     20342     20341     20343     20341     20344     20344     20345
     20344     20352     20344     20346     20352     20353     20352     20354
     20352     20355     20346     20347     20347     20349     20347     20348
     20349     20350     20349     20351     20349     20361     20361     20362
     20361     20363     20361     20364     20364     20365     20364     20366
     20364     20367     20367     20368     20367     20369     20367     20370
     20370     20371     20370     20372     20370     20373     20373     20374
     20373     20375     20373     20376     20376     20377     20376     20378
     20376     20379     20379     20380     20379     20381     20381     20382
     20381     20383     20383     20384     20383     20385     20383     20386
     20386     20387     20386     20388     20388     20389     20388     20390
     20390     20391     20390     20392     20390     20393     20393     20394
     20393     20395     20393     20396     20396     20397     20396     20398
     20396     20399     20399     20400     20399     20401     20399     20402
     20402     20403     20402     20404     20402     20405     20355     20356
     20356     20358     20356     20357     20358     20359     20358     20360
     20358     20406     20406     20407     20406     20408     20406     20409
     20409     20410     20409     20411     20409     20412     20412     20413
     20412     20414     20412     20415     20415     20416     20415     20417
     20415     20418     20418     20419     20418     20420     20418     20421
     20421     20422     20421     20423     20421     20424     20424     20425
     20424     20426     20424     20427     20427     20428     20427     20429
     20427     20430     20430     20431     20430     20432     20430     20433
     20433     20434     20433     20435     20433     20436     20436     20437
     20436     20438     20436     20439     20439     20440     20439     20441
     20439     20442     20442     20443     20442     20444     20442     20445
     20445     20446     20445     20447     20445     20448     20448     20449
     20448     20450     20448     20451     20451     20452     20451     20453
     20451     20454      9217      9221      9217      9225      9217      9229
      9221      9222      9221      9223      9221      9224      9225      9226
      9225      9227      9225      9228      9229      9230      9229      9231
      9229      9232      9217      9218      9218      9219      9218      9220
      9218      9233      9233      9234      9233      9235      9233      9239
      9240      9241      9239      9236      9236      9240      9236      9237
      9236      9238      9241      9242      9241      9243      9241      9244
      9244      9245      9244      9252      9244      9246      9252      9253
      9252      9254      9252      9255      9246      9247      9247      9249
      9247      9248      9249      9250      9249      9251      9249      9261
      9261      9262      9261      9263      9261      9264      9264      9265
      9264      9266      9264      9267      9267      9268      9267      9269
      9269      9270      9269      9271      9271      9272      9271      9273
      9271      9274      9274      9275      9274      9276      9276      9277
      9276      9278      9278      9279      9278      9280      9278      9281
      9281      9282      9281      9283      9283      9284      9283      9285
      9285      9286      9285      9287      9285      9288      9288      9289
      9288      9290      9290      9291      9290      9292      9292      9293
      9292      9294      9292      9295      9295      9296      9295      9297
      9295      9298      9298      9299      9298      9300      9298      9301
      9301      9302      9301      9303      9301      9304      9304      9305
      9304      9306      9304      9307      9255      9256      9256      9258
      9256      9257      9258      9259      9258      9260      9258      9308
      9308      9309      9308      9310      9308      9311      9311      9312
      9311      9313      9311      9314      9314      9315      9314      9316
      9314      9317      9317      9318      9317      9319      9317      9320
      9320      9321      9320      9322      9320      9323      9323      9324
      9323      9325      9323      9326      9326      9327      9326      9328
      9326      9329      9329      9330      9329      9331      9329      9332
      9332      9333      9332      9334      9332      9335      9335      9336
      9335      9337      9335      9338      9338      9339      9338      9340
      9338      9341      9341      9342      9341      9343      9341      9344
      9344      9345      9344      9346      9344      9347      9347      9348
      9347      9349      9347      9350      9350      9351      9350      9352
      9350      9353      9353      9354      9353      9355      9353      9356
      4955      4957      4955      4956      4957      4958      4955      5001
      5001      5002      5001      5003      5001      4998      4998      4999
      4998      5000      4955      4959      4959      4960      4959      4961
      4959      4962      4962      4993      4993      4998      4993      4994
      4994      4995      4994      4996      4994      4997      4962      4963
      4963      4964      4963      4965      4965      4966      4965      4967
      4965      4968      4968      4969      4968      4991      4991      4992
      4991      4993      4968      4970      4970      4971      4970      4980
      4980      4985      4985      4986      4985      4987      4985      4988
      4988      4989      4988      4990      4988      4991      4980      4981
      4981      4982      4981      4983      4981      4984      4970      4972
      4972      4973      4972      4974      4972      4975      4975      4976
      4975      4977      4975      4978      4978      4979      4978      4980
      4978      5004      5004      5005      5004      5006      5006      5007
      5006      5008      5006      5009      5004      5010      5010      5011
      5010      5012      5010      5013      5013      5014      5013      5015
      5013      5016      5016      5017      5016      5018      5016      5019
      5019      5020      5019      5021      5021      5022      5021      5023
      5021      5024      5019      5025      5025      5026      5025      5027
      5025      5028      5029      5031      5029      5030      5031      5032
      5029      5075      5075      5076      5075      5077      5075      5072
      5072      5073      5072      5074      5029      5033      5033      5034
      5033      5035      5033      5036      5036      5067      5067      5072
      5067      5068      5068      5069      5068      5070      5068      5071
      5036      5037      5037      5038      5037      5039      5039      5040
      5039      5041      5039      5042      5042      5043      5042      5065
      5065      5066      5065      5067      5042      5044      5044      5045
      5044      5054      5054      5059      5059      5060      5059      5061
      5059      5062      5062      5063      5062      5064      5062      5065
      5054      5055      5055      5056      5055      5057      5055      5058
      5044      5046      5046      5047      5046      5048      5046      5049
      5049      5050      5049      5051      5049      5052      5052      5053
      5052      5054      5052      5078      5078      5079      5078      5080
      5080      5081      5080      5082      5080      5083      5078      5084
      5084      5085      5084      5086      5084      5087      5087      5088
      5087      5089      5087      5090      5090      5091      5090      5092
      5090      5093      5093      5094      5093      5095      5095      5096
      5095      5097      5095      5098      5093      5099      5099      5100
      5099      5101      5099      5102     17655     17656     17655     17657
     17655     17658     17655     17659     17659     17660     17659     17661
     17659     17662     17662     17663     17662     17664     17662     17668
     17670     17669     17668     17665     17665     17669     17665     17666
     17665     17667     17670     17671     17670     17672     17670     17673
     17673     17674     17673     17681     17673     17675     17681     17682
     17681     17683     17681     17684     17675     17676     17676     17678
     17676     17677     17678     17679     17678     17680     17678     17690
     17690     17691     17690     17692     17690     17693     17693     17694
     17693     17695     17693     17696     17696     17697     17696     17698
     17698     17699     17698     17700     17700     17701     17700     17702
     17700     17703     17703     17704     17703     17705     17705     17706
     17705     17707     17707     17708     17707     17709     17707     17710
     17710     17711     17710     17712     17712     17713     17712     17714
     17714     17715     17714     17716     17714     17717     17717     17718
     17717     17719     17719     17720     17719     17721     17721     17722
     17721     17723     17721     17724     17724     17725     17724     17726
     17724     17727     17727     17728     17727     17729     17727     17730
     17730     17731     17730     17732     17730     17733     17733     17734
     17733     17735     17733     17736     17684     17685     17685     17687
     17685     17686     17687     17688     17687     17689     17687     17737
     17737     17738     17737     17739     17737     17740     17740     17741
     17740     17742     17740     17743     17743     17744     17743     17745
     17743     17746     17746     17747     17746     17748     17746     17749
     17749     17750     17749     17751     17749     17752     17752     17753
     17752     17754     17752     17755     17755     17756     17755     17757
     17755     17758     17758     17759     17758     17760     17758     17761
     17761     17762     17761     17763     17761     17764     17764     17765
     17764     17766     17764     17767     17767     17768     17767     17769
     17767     17770     17770     17771     17770     17772     17770     17773
     17773     17774     17773     17775     17773     17776     17776     17777
     17776     17778     17776     17779     17779     17780     17779     17781
     17779     17782     17782     17783     17782     17784     17782     17785
      9357      9361      9357      9365      9357      9369      9361      9362
      9361      9363      9361      9364      9365      9366      9365      9367
      9365      9368      9369      9370      9369      9371      9369      9372
      9357      9358      9358      9359      9358      9360      9358      9373
      9373      9374      9373      9375      9373      9379      9380      9381
      9379      9376      9376      9380      9376      9377      9376      9378
      9381      9382      9381      9383      9381      9384      9384      9385
      9384      9392      9384      9386      9392      9393      9392      9394
      9392      9395      9386      9387      9387      9389      9387      9388
      9389      9390      9389      9391      9389      9401      9401      9402
      9401      9403      9401      9404      9404      9405      9404      9406
      9404      9407      9407      9408      9407      9409      9409      9410
      9409      9411      9411      9412      9411      9413      9411      9414
      9414      9415      9414      9416      9416      9417      9416      9418
      9418      9419      9418      9420      9418      9421      9421      9422
      9421      9423      9423      9424      9423      9425      9425      9426
      9425      9427      9425      9428      9428      9429      9428      9430
      9430      9431      9430      9432      9432      9433      9432      9434
      9432      9435      9435      9436      9435      9437      9435      9438
      9438      9439      9438      9440      9438      9441      9441      9442
      9441      9443      9441      9444      9444      9445      9444      9446
      9444      9447      9395      9396      9396      9398      9396      9397
      9398      9399      9398      9400      9398      9448      9448      9449
      9448      9450      9448      9451      9451      9452      9451      9453
      9451      9454      9454      9455      9454      9456      9454      9457
      9457      9458      9457      9459      9457      9460      9460      9461
      9460      9462      9460      9463      9463      9464      9463      9465
      9463      9466      9466      9467      9466      9468      9466      9469
      9469      9470      9469      9471      9469      9472      9472      9473
      9472      9474      9472      9475      9475      9476      9475      9477
      9475      9478      9478      9479      9478      9480      9478      9481
      9481      9482      9481      9483      9481      9484      9484      9485
      9484      9486      9484      9487      9487      9488      9487      9489
      9487      9490      9490      9491      9490      9492      9490      9493
      9493      9494      9493      9495      9493      9496     20455     20456
     20455     20460     20455     20464     20456     20457     20456     20458
     20456     20459     20460     20461     20460     20462     20460     20463
     20464     20465     20464     20466     20464     20467     20455     20468
     20468     20469     20468     20470     20468     20471     20471     20472
     20471     20473     20471     20477     20478     20479     20477     20474
     20474     20478     20474     20475     20474     20476     20479     20480
     20479     20481     20479     20482     20482     20483     20482     20490
     20482     20484     20490     20491     20490     20492     20490     20493
     20484     20485     20485     20487     20485     20486     20487     20488
     20487     20489     20487     20499     20499     20500     20499     20501
     20499     20502     20502     20503     20502     20504     20502     20505
     20505     20506     20505     20507     20505     20508     20508     20509
     20508     20510     20508     20511     20511     20512     20511     20513
     20511     20514     20514     20515     20514     20516     20514     20517
     20517     20518     20517     20519     20519     20520     20519     20521
     20521     20522     20521     20523     20521     20524     20524     20525
     20524     20526     20526     20527     20526     20528     20528     20529
     20528     20530     20528     20531     20531     20532     20531     20533
     20531     20534     20534     20535     20534     20536     20534     20537
     20537     20538     20537     20539     20537     20540     20540     20541
     20540     20542     20540     20543     20493     20494     20494     20496
     20494     20495     20496     20497     20496     20498     20496     20544
     20544     20545     20544     20546     20544     20547     20547     20548
     20547     20549     20547     20550     20550     20551     20550     20552
     20550     20553     20553     20554     20553     20555     20553     20556
     20556     20557     20556     20558     20556     20559     20559     20560
     20559     20561     20559     20562     20562     20563     20562     20564
     20562     20565     20565     20566     20565     20567     20565     20568
     20568     20569     20568     20570     20568     20571     20571     20572
     20571     20573     20571     20574     20574     20575     20574     20576
     20574     20577     20577     20578     20577     20579     20577     20580
     20580     20581     20580     20582     20580     20583     20583     20584
     20583     20585     20583     20586     20586     20587     20586     20588
     20586     20589     20589     20590     20589     20591     20589     20592
      1597      1598      1597      1599      1597      1600      1597      1601
      1605      1603      1603      1601      1603      1604      1601      1602
      1601      1606      1614      1613      1606      1607      1606      1608
      1606      1612      1612      1609      1609      1613      1609      1610
      1609      1611      1614      1615      1614      1616      1614      1617
      1617      1618      1617      1625      1617      1619      1625      1626
      1625      1627      1625      1628      1619      1620      1620      1622
      1620      1621      1622      1623      1622      1624      1622      1634
      1634      1635      1634      1636      1634      1637      1637      1638
      1637      1639      1637      1640      1640      1641      1640      1642
      1642      1643      1642      1644      1644      1645      1644      1646
      1644      1647      1647      1648      1647      1649      1649      1650
      1649      1651      1651      1652      1651      1653      1651      1654
      1654      1655      1654      1656      1656      1657      1656      1658
      1658      1659      1658      1660      1658      1661      1661      1662
      1661      1663      1663      1664      1663      1665      1665      1666
      1665      1667      1665      1668      1668      1669      1668      1670
      1668      1671      1671      1672      1671      1673      1671      1674
      1674      1675      1674      1676      1674      1677      1677      1678
      1677      1679      1677      1680      1628      1629      1629      1631
      1629      1630      1631      1632      1631      1633      1631      1681
      1681      1682      1681      1683      1681      1684      1684      1685
      1684      1686      1684      1687      1687      1688      1687      1689
      1687      1690      1690      1691      1690      1692      1690      1693
      1693      1694      1693      1695      1693      1696      1696      1697
      1696      1698      1696      1699      1699      1700      1699      1701
      1699      1702      1702      1703      1702      1704      1702      1705
      1705      1706      1705      1707      1705      1708      1708      1709
      1708      1710      1708      1711      1711      1712      1711      1713
      1711      1714      1714      1715      1714      1716      1714      1717
      1717      1718      1717      1719      1717      1720      1720      1721
      1720      1722      1720      1723      1723      1724      1723      1725
      1723      1726      1726      1727      1726      1728      1726      1729
      7853      7854      7853      7855      7853      7856      7853      7857
      7857      7858      7857      7859      7857      7860      7860      7861
      7860      7862      7860      7866      7868      7867      7866      7863
      7863      7867      7863      7864      7863      7865      7868      7869
      7868      7870      7868      7871      7871      7872      7871      7879
      7871      7873      7879      7880      7879      7881      7879      7882
      7873      7874      7874      7876      7874      7875      7876      7877
      7876      7878      7876      7888      7888      7889      7888      7890
      7888      7891      7891      7892      7891      7893      7891      7894
      7894      7895      7894      7896      7894      7897      7897      7898
      7897      7899      7897      7900      7900      7901      7900      7902
      7900      7903      7903      7904      7903      7905      7903      7906
      7906      7907      7906      7908      7908      7909      7908      7910
      7910      7911      7910      7912      7910      7913      7913      7914
      7913      7915      7913      7916      7916      7917      7916      7918
      7916      7919      7919      7920      7919      7921      7919      7922
      7922      7923      7922      7924      7922      7925      7925      7926
      7925      7927      7925      7928      7928      7929      7928      7930
      7928      7931      7931      7932      7931      7933      7931      7934
      7882      7883      7883      7885      7883      7884      7885      7886
      7885      7887      7885      7935      7935      7936      7935      7937
      7935      7938      7938      7939      7938      7940      7938      7941
      7941      7942      7941      7943      7941      7944      7944      7945
      7944      7946      7944      7947      7947      7948      7947      7949
      7947      7950      7950      7951      7950      7952      7950      7953
      7953      7954      7953      7955      7953      7956      7956      7957
      7956      7958      7956      7959      7959      7960      7959      7961
      7959      7962      7962      7963      7962      7964      7962      7965
      7965      7966      7965      7967      7965      7968      7968      7969
      7968      7970      7968      7971      7971      7972      7971      7973
      7971      7974      7974      7975      7974      7976      7974      7977
      7977      7978      7977      7979      7977      7980      7980      7981
      7980      7982      7980      7983     13407     13408     13407     13409
     13407     13410     13407     13404     13404     13405     13404     13406
     13404     13401     13401     13402     13401     13403     13401     13398
     13398     13399     13398     13400     13398     13395     13395     13396
     13395     13397     13395     13392     13392     13393     13392     13394
     13392     13389     13389     13390     13389     13391     13389     13386
     13386     13387     13386     13388     13386     13383     13383     13384
     13383     13385     13383     13380     13380     13381     13380     13382
     13380     13377     13377     13378     13377     13379     13377     13374
     13374     13375     13374     13376     13374     13371     13371     13372
     13371     13373     13371     13369     13369     13370     13367     13368
     13367     13363     13363     13364     13363     13365     13365     13366
     13363     13361     13361     13362     13361     13356     13356     13357
     13356     13358     13356     13354     13354     13351     13355     13351
     13352     13351     13353     13351     13355     13348     13348     13349
     13348     13350     13348     13345     13345     13346     13345     13347
     13345     13332     13332     13341     13332     13337     13332     13333
     13341     13342     13341     13343     13341     13344     13337     13338
     13337     13339     13337     13340     13333     13334     13333     13335
     13333     13336     13361     13359     13359     13360     13359     13411
     13411     13413     13413     13414     13413     13415     13413     13416
     13416     13417     13416     13418     13416     13419     13419     13420
     13419     13421     13419     13422     13422     13423     13422     13424
     13422     13425     13425     13426     13425     13427     13425     13428
     13428     13429     13428     13430     13428     13431     13431     13432
     13431     13433     13431     13434     13434     13435     13436     13437
     13436     13438     13438     13439     13438     13440     13438     13441
     13441     13442     13441     13443     13441     13444     13444     13445
     13444     13446     13444     13447     13447     13448     13447     13449
     13447     13450     13450     13451     13450     13452     13450     13453
     13453     13454     13453     13455     13453     13456     13456     13457
     13456     13458     13456     13459     13459     13460     13459     13461
     13459     13462     13367     13369     13434     13436     13411     13412
     13538     13539     13538     13540     13538     13541     13538     13535
     13535     13536     13535     13537     13535     13532     13532     13533
     13532     13534     13532     13529     13529     13530     13529     13531
     13529     13526     13526     13527     13526     13528     13526     13523
     13523     13524     13523     13525     13523     13520     13520     13521
     13520     13522     13520     13517     13517     13518     13517     13519
     13517     13514     13514     13515     13514     13516     13514     13511
     13511     13512     13511     13513     13511     13508     13508     13509
     13508     13510     13508     13505     13505     13506     13505     13507
     13505     13502     13502     13503     13502     13504     13502     13500
     13500     13501     13498     13499     13498     13494     13494     13495
     13494     13496     13496     13497     13494     13492     13492     13493
     13492     13487     13487     13488     13487     13489     13487     13485
     13485     13482     13486     13482     13483     13482     13484     13482
     13486     13479     13479     13480     13479     13481     13479     13476
     13476     13477     13476     13478     13476     13463     13463     13472
     13463     13468     13463     13464     13472     13473     13472     13474
     13472     13475     13468     13469     13468     13470     13468     13471
     13464     13465     13464     13466     13464     13467     13492     13490
     13490     13491     13490     13542     13542     13544     13544     13545
     13544     13546     13544     13547     13547     13548     13547     13549
     13547     13550     13550     13551     13550     13552     13550     13553
     13553     13554     13553     13555     13553     13556     13556     13557
     13556     13558     13556     13559     13559     13560     13559     13561
     13559     13562     13562     13563     13562     13564     13562     13565
     13565     13566     13567     13568     13567     13569     13569     13570
     13569     13571     13569     13572     13572     13573     13572     13574
     13572     13575     13575     13576     13575     13577     13575     13578
     13578     13579     13578     13580     13578     13581     13581     13582
     13581     13583     13581     13584     13584     13585     13584     13586
     13584     13587     13587     13588     13587     13589     13587     13590
     13590     13591     13590     13592     13590     13593     13498     13500
     13565     13567     13542     13543      1730      1731      1730      1732
      1730      1733      1730      1734      1738      1736      1736      1734
      1736      1737      1734      1735      1734      1739      1747      1746
      1739      1740      1739      1741      1739      1745      1745      1742
      1742      1746      1742      1743      1742      1744      1747      1748
      1747      1749      1747      1750      1750      1751      1750      1758
      1750      1752      1758      1759      1758      1760      1758      1761
      1752      1753      1753      1755      1753      1754      1755      1756
      1755      1757      1755      1767      1767      1768      1767      1769
      1767      1770      1770      1771      1770      1772      1770      1773
      1773      1774      1773      1775      1775      1776      1775      1777
      1777      1778      1777      1779      1777      1780      1780      1781
      1780      1782      1782      1783      1782      1784      1784      1785
      1784      1786      1784      1787      1787      1788      1787      1789
      1789      1790      1789      1791      1791      1792      1791      1793
      1791      1794      1794      1795      1794      1796      1796      1797
      1796      1798      1798      1799      1798      1800      1798      1801
      1801      1802      1801      1803      1801      1804      1804      1805
      1804      1806      1804      1807      1807      1808      1807      1809
      1807      1810      1810      1811      1810      1812      1810      1813
      1761      1762      1762      1764      1762      1763      1764      1765
      1764      1766      1764      1814      1814      1815      1814      1816
      1814      1817      1817      1818      1817      1819      1817      1820
      1820      1821      1820      1822      1820      1823      1823      1824
      1823      1825      1823      1826      1826      1827      1826      1828
      1826      1829      1829      1830      1829      1831      1829      1832
      1832      1833      1832      1834      1832      1835      1835      1836
      1835      1837      1835      1838      1838      1839      1838      1840
      1838      1841      1841      1842      1841      1843      1841      1844
      1844      1845      1844      1846      1844      1847      1847      1848
      1847      1849      1847      1850      1850      1851      1850      1852
      1850      1853      1853      1854      1853      1855      1853      1856
      1856      1857      1856      1858      1856      1859      1859      1860
      1859      1861      1859      1862      5103      5105      5103      5104
      5105      5106      5103      5149      5149      5150      5149      5151
      5149      5146      5146      5147      5146      5148      5103      5107
      5107      5108      5107      5109      5107      5110      5110      5141
      5141      5146      5141      5142      5142      5143      5142      5144
      5142      5145      5110      5111      5111      5112      5111      5113
      5113      5114      5113      5115      5113      5116      5116      5117
      5116      5139      5139      5140      5139      5141      5116      5118
      5118      5119      5118      5128      5128      5133      5133      5134
      5133      5135      5133      5136      5136      5137      5136      5138
      5136      5139      5128      5129      5129      5130      5129      5131
      5129      5132      5118      5120      5120      5121      5120      5122
      5120      5123      5123      5124      5123      5125      5123      5126
      5126      5127      5126      5128      5126      5152      5152      5153
      5152      5154      5154      5155      5154      5156      5154      5157
      5152      5158      5158      5159      5158      5160      5158      5161
      5161      5162      5161      5163      5161      5164      5164      5165
      5164      5166      5164      5167      5167      5168      5167      5169
      5169      5170      5169      5171      5169      5172      5167      5173
      5173      5174      5173      5175      5173      5176     13669     13670
     13669     13671     13669     13672     13669     13666     13666     13667
     13666     13668     13666     13663     13663     13664     13663     13665
     13663     13660     13660     13661     13660     13662     13660     13657
     13657     13658     13657     13659     13657     13654     13654     13655
     13654     13656     13654     13651     13651     13652     13651     13653
     13651     13648     13648     13649     13648     13650     13648     13645
     13645     13646     13645     13647     13645     13642     13642     13643
     13642     13644     13642     13639     13639     13640     13639     13641
     13639     13636     13636     13637     13636     13638     13636     13633
     13633     13634     13633     13635     13633     13631     13631     13632
     13629     13630     13629     13625     13625     13626     13625     13627
     13627     13628     13625     13623     13623     13624     13623     13618
     13618     13619     13618     13620     13618     13616     13616     13613
     13617     13613     13614     13613     13615     13613     13617     13610
     13610     13611     13610     13612     13610     13607     13607     13608
     13607     13609     13607     13594     13594     13603     13594     13599
     13594     13595     13603     13604     13603     13605     13603     13606
     13599     13600     13599     13601     13599     13602     13595     13596
     13595     13597     13595     13598     13623     13621     13621     13622
     13621     13673     13673     13675     13675     13676     13675     13677
     13675     13678     13678     13679     13678     13680     13678     13681
     13681     13682     13681     13683     13681     13684     13684     13685
     13684     13686     13684     13687     13687     13688     13687     13689
     13687     13690     13690     13691     13690     13692     13690     13693
     13693     13694     13693     13695     13693     13696     13696     13697
     13698     13699     13698     13700     13700     13701     13700     13702
     13700     13703     13703     13704     13703     13705     13703     13706
     13706     13707     13706     13708     13706     13709     13709     13710
     13709     13711     13709     13712     13712     13713     13712     13714
     13712     13715     13715     13716     13715     13717     13715     13718
     13718     13719     13718     13720     13718     13721     13721     13722
     13721     13723     13721     13724     13629     13631     13696     13698
     13673     13674     13800     13801     13800     13802     13800     13803
     13800     13797     13797     13798     13797     13799     13797     13794
     13794     13795     13794     13796     13794     13791     13791     13792
     13791     13793     13791     13788     13788     13789     13788     13790
     13788     13785     13785     13786     13785     13787     13785     13782
     13782     13783     13782     13784     13782     13779     13779     13780
     13779     13781     13779     13776     13776     13777     13776     13778
     13776     13773     13773     13774     13773     13775     13773     13770
     13770     13771     13770     13772     13770     13767     13767     13768
     13767     13769     13767     13764     13764     13765     13764     13766
     13764     13762     13762     13763     13760     13761     13760     13756
     13756     13757     13756     13758     13758     13759     13756     13754
     13754     13755     13754     13749     13749     13750     13749     13751
     13749     13747     13747     13744     13748     13744     13745     13744
     13746     13744     13748     13741     13741     13742     13741     13743
     13741     13738     13738     13739     13738     13740     13738     13725
     13725     13734     13725     13730     13725     13726     13734     13735
     13734     13736     13734     13737     13730     13731     13730     13732
     13730     13733     13726     13727     13726     13728     13726     13729
     13754     13752     13752     13753     13752     13804     13804     13806
     13806     13807     13806     13808     13806     13809     13809     13810
     13809     13811     13809     13812     13812     13813     13812     13814
     13812     13815     13815     13816     13815     13817     13815     13818
     13818     13819     13818     13820     13818     13821     13821     13822
     13821     13823     13821     13824     13824     13825     13824     13826
     13824     13827     13827     13828     13829     13830     13829     13831
     13831     13832     13831     13833     13831     13834     13834     13835
     13834     13836     13834     13837     13837     13838     13837     13839
     13837     13840     13840     13841     13840     13842     13840     13843
     13843     13844     13843     13845     13843     13846     13846     13847
     13846     13848     13846     13849     13849     13850     13849     13851
     13849     13852     13852     13853     13852     13854     13852     13855
     13760     13762     13827     13829     13804     13805     17786     17787
     17786     17788     17786     17789     17786     17790     17790     17791
     17790     17792     17790     17793     17793     17794     17793     17795
     17793     17799     17801     17800     17799     17796     17796     17800
     17796     17797     17796     17798     17801     17802     17801     17803
     17801     17804     17804     17805     17804     17812     17804     17806
     17812     17813     17812     17814     17812     17815     17806     17807
     17807     17809     17807     17808     17809     17810     17809     17811
     17809     17821     17821     17822     17821     17823     17821     17824
     17824     17825     17824     17826     17824     17827     17827     17828
     17827     17829     17829     17830     17829     17831     17831     17832
     17831     17833     17831     17834     17834     17835     17834     17836
     17836     17837     17836     17838     17838     17839     17838     17840
     17838     17841     17841     17842     17841     17843     17843     17844
     17843     17845     17845     17846     17845     17847     17845     17848
     17848     17849     17848     17850     17850     17851     17850     17852
     17852     17853     17852     17854     17852     17855     17855     17856
     17855     17857     17855     17858     17858     17859     17858     17860
     17858     17861     17861     17862     17861     17863     17861     17864
     17864     17865     17864     17866     17864     17867     17815     17816
     17816     17818     17816     17817     17818     17819     17818     17820
     17818     17868     17868     17869     17868     17870     17868     17871
     17871     17872     17871     17873     17871     17874     17874     17875
     17874     17876     17874     17877     17877     17878     17877     17879
     17877     17880     17880     17881     17880     17882     17880     17883
     17883     17884     17883     17885     17883     17886     17886     17887
     17886     17888     17886     17889     17889     17890     17889     17891
     17889     17892     17892     17893     17892     17894     17892     17895
     17895     17896     17895     17897     17895     17898     17898     17899
     17898     17900     17898     17901     17901     17902     17901     17903
     17901     17904     17904     17905     17904     17906     17904     17907
     17907     17908     17907     17909     17907     17910     17910     17911
     17910     17912     17910     17913     17913     17914     17913     17915
     17913     17916      9497      9501      9497      9505      9497      9509
      9501      9502      9501      9503      9501      9504      9505      9506
      9505      9507      9505      9508      9509      9510      9509      9511
      9509      9512      9497      9498      9498      9499      9498      9500
      9498      9513      9513      9514      9513      9515      9513      9519
      9520      9521      9519      9516      9516      9520      9516      9517
      9516      9518      9521      9522      9521      9523      9521      9524
      9524      9525      9524      9532      9524      9526      9532      9533
      9532      9534      9532      9535      9526      9527      9527      9529
      9527      9528      9529      9530      9529      9531      9529      9541
      9541      9542      9541      9543      9541      9544      9544      9545
      9544      9546      9544      9547      9547      9548      9547      9549
      9549      9550      9549      9551      9551      9552      9551      9553
      9551      9554      9554      9555      9554      9556      9556      9557
      9556      9558      9558      9559      9558      9560      9558      9561
      9561      9562      9561      9563      9563      9564      9563      9565
      9565      9566      9565      9567      9565      9568      9568      9569
      9568      9570      9570      9571      9570      9572      9572      9573
      9572      9574      9572      9575      9575      9576      9575      9577
      9575      9578      9578      9579      9578      9580      9578      9581
      9581      9582      9581      9583      9581      9584      9584      9585
      9584      9586      9584      9587      9535      9536      9536      9538
      9536      9537      9538      9539      9538      9540      9538      9588
      9588      9589      9588      9590      9588      9591      9591      9592
      9591      9593      9591      9594      9594      9595      9594      9596
      9594      9597      9597      9598      9597      9599      9597      9600
      9600      9601      9600      9602      9600      9603      9603      9604
      9603      9605      9603      9606      9606      9607      9606      9608
      9606      9609      9609      9610      9609      9611      9609      9612
      9612      9613      9612      9614      9612      9615      9615      9616
      9615      9617      9615      9618      9618      9619      9618      9620
      9618      9621      9621      9622      9621      9623      9621      9624
      9624      9625      9624      9626      9624      9627      9627      9628
      9627      9629      9627      9630      9630      9631      9630      9632
      9630      9633      9633      9634      9633      9635      9633      9636
     13931     13932     13931     13933     13931     13934     13931     13928
     13928     13929     13928     13930     13928     13925     13925     13926
     13925     13927     13925     13922     13922     13923     13922     13924
     13922     13919     13919     13920     13919     13921     13919     13916
     13916     13917     13916     13918     13916     13913     13913     13914
     13913     13915     13913     13910     13910     13911     13910     13912
     13910     13907     13907     13908     13907     13909     13907     13904
     13904     13905     13904     13906     13904     13901     13901     13902
     13901     13903     13901     13898     13898     13899     13898     13900
     13898     13895     13895     13896     13895     13897     13895     13893
     13893     13894     13891     13892     13891     13887     13887     13888
     13887     13889     13889     13890     13887     13885     13885     13886
     13885     13880     13880     13881     13880     13882     13880     13878
     13878     13875     13879     13875     13876     13875     13877     13875
     13879     13872     13872     13873     13872     13874     13872     13869
     13869     13870     13869     13871     13869     13856     13856     13865
     13856     13861     13856     13857     13865     13866     13865     13867
     13865     13868     13861     13862     13861     13863     13861     13864
     13857     13858     13857     13859     13857     13860     13885     13883
     13883     13884     13883     13935     13935     13937     13937     13938
     13937     13939     13937     13940     13940     13941     13940     13942
     13940     13943     13943     13944     13943     13945     13943     13946
     13946     13947     13946     13948     13946     13949     13949     13950
     13949     13951     13949     13952     13952     13953     13952     13954
     13952     13955     13955     13956     13955     13957     13955     13958
     13958     13959     13960     13961     13960     13962     13962     13963
     13962     13964     13962     13965     13965     13966     13965     13967
     13965     13968     13968     13969     13968     13970     13968     13971
     13971     13972     13971     13973     13971     13974     13974     13975
     13974     13976     13974     13977     13977     13978     13977     13979
     13977     13980     13980     13981     13980     13982     13980     13983
     13983     13984     13983     13985     13983     13986     13891     13893
     13958     13960     13935     13936      5177      5179      5177      5178
      5179      5180      5177      5223      5223      5224      5223      5225
      5223      5220      5220      5221      5220      5222      5177      5181
      5181      5182      5181      5183      5181      5184      5184      5215
      5215      5220      5215      5216      5216      5217      5216      5218
      5216      5219      5184      5185      5185      5186      5185      5187
      5187      5188      5187      5189      5187      5190      5190      5191
      5190      5213      5213      5214      5213      5215      5190      5192
      5192      5193      5192      5202      5202      5207      5207      5208
      5207      5209      5207      5210      5210      5211      5210      5212
      5210      5213      5202      5203      5203      5204      5203      5205
      5203      5206      5192      5194      5194      5195      5194      5196
      5194      5197      5197      5198      5197      5199      5197      5200
      5200      5201      5200      5202      5200      5226      5226      5227
      5226      5228      5228      5229      5228      5230      5228      5231
      5226      5232      5232      5233      5232      5234      5232      5235
      5235      5236      5235      5237      5235      5238      5238      5239
      5238      5240      5238      5241      5241      5242      5241      5243
      5243      5244      5243      5245      5243      5246      5241      5247
      5247      5248      5247      5249      5247      5250      1863      1864
      1863      1865      1863      1866      1863      1867      1871      1869
      1869      1867      1869      1870      1867      1868      1867      1872
      1880      1879      1872      1873      1872      1874      1872      1878
      1878      1875      1875      1879      1875      1876      1875      1877
      1880      1881      1880      1882      1880      1883      1883      1884
      1883      1891      1883      1885      1891      1892      1891      1893
      1891      1894      1885      1886      1886      1888      1886      1887
      1888      1889      1888      1890      1888      1900      1900      1901
      1900      1902      1900      1903      1903      1904      1903      1905
      1903      1906      1906      1907      1906      1908      1908      1909
      1908      1910      1910      1911      1910      1912      1910      1913
      1913      1914      1913      1915      1915      1916      1915      1917
      1917      1918      1917      1919      1917      1920      1920      1921
      1920      1922      1922      1923      1922      1924      1924      1925
      1924      1926      1924      1927      1927      1928      1927      1929
      1929      1930      1929      1931      1931      1932      1931      1933
      1931      1934      1934      1935      1934      1936      1934      1937
      1937      1938      1937      1939      1937      1940      1940      1941
      1940      1942      1940      1943      1943      1944      1943      1945
      1943      1946      1894      1895      1895      1897      1895      1896
      1897      1898      1897      1899      1897      1947      1947      1948
      1947      1949      1947      1950      1950      1951      1950      1952
      1950      1953      1953      1954      1953      1955      1953      1956
      1956      1957      1956      1958      1956      1959      1959      1960
      1959      1961      1959      1962      1962      1963      1962      1964
      1962      1965      1965      1966      1965      1967      1965      1968
      1968      1969      1968      1970      1968      1971      1971      1972
      1971      1973      1971      1974      1974      1975      1974      1976
      1974      1977      1977      1978      1977      1979      1977      1980
      1980      1981      1980      1982      1980      1983      1983      1984
      1983      1985      1983      1986      1986      1987      1986      1988
      1986      1989      1989      1990      1989      1991      1989      1992
      1992      1993      1992      1994      1992      1995      5251      5253
      5251      5252      5253      5254      5251      5297      5297      5298
      5297      5299      5297      5294      5294      5295      5294      5296
      5251      5255      5255      5256      5255      5257      5255      5258
      5258      5289      5289      5294      5289      5290      5290      5291
      5290      5292      5290      5293      5258      5259      5259      5260
      5259      5261      5261      5262      5261      5263      5261      5264
      5264      5265      5264      5287      5287      5288      5287      5289
      5264      5266      5266      5267      5266      5276      5276      5281
      5281      5282      5281      5283      5281      5284      5284      5285
      5284      5286      5284      5287      5276      5277      5277      5278
      5277      5279      5277      5280      5266      5268      5268      5269
      5268      5270      5268      5271      5271      5272      5271      5273
      5271      5274      5274      5275      5274      5276      5274      5300
      5300      5301      5300      5302      5302      5303      5302      5304
      5302      5305      5300      5306      5306      5307      5306      5308
      5306      5309      5309      5310      5309      5311      5309      5312
      5312      5313      5312      5314      5312      5315      5315      5316
      5315      5317      5317      5318      5317      5319      5317      5320
      5315      5321      5321      5322      5321      5323      5321      5324
      1996      1997      1996      1998      1996      1999      1996      2000
      2004      2002      2002      2000      2002      2003      2000      2001
      2000      2005      2013      2012      2005      2006      2005      2007
      2005      2011      2011      2008      2008      2012      2008      2009
      2008      2010      2013      2014      2013      2015      2013      2016
      2016      2017      2016      2024      2016      2018      2024      2025
      2024      2026      2024      2027      2018      2019      2019      2021
      2019      2020      2021      2022      2021      2023      2021      2033
      2033      2034      2033      2035      2033      2036      2036      2037
      2036      2038      2036      2039      2039      2040      2039      2041
      2041      2042      2041      2043      2043      2044      2043      2045
      2043      2046      2046      2047      2046      2048      2048      2049
      2048      2050      2050      2051      2050      2052      2050      2053
      2053      2054      2053      2055      2055      2056      2055      2057
      2057      2058      2057      2059      2057      2060      2060      2061
      2060      2062      2062      2063      2062      2064      2064      2065
      2064      2066      2064      2067      2067      2068      2067      2069
      2067      2070      2070      2071      2070      2072      2070      2073
      2073      2074      2073      2075      2073      2076      2076      2077
      2076      2078      2076      2079      2027      2028      2028      2030
      2028      2029      2030      2031      2030      2032      2030      2080
      2080      2081      2080      2082      2080      2083      2083      2084
      2083      2085      2083      2086      2086      2087      2086      2088
      2086      2089      2089      2090      2089      2091      2089      2092
      2092      2093      2092      2094      2092      2095      2095      2096
      2095      2097      2095      2098      2098      2099      2098      2100
      2098      2101      2101      2102      2101      2103      2101      2104
      2104      2105      2104      2106      2104      2107      2107      2108
      2107      2109      2107      2110      2110      2111      2110      2112
      2110      2113      2113      2114      2113      2115      2113      2116
      2116      2117      2116      2118      2116      2119      2119      2120
      2119      2121      2119      2122      2122      2123      2122      2124
      2122      2125      2125      2126      2125      2127      2125      2128
     14062     14063     14062     14064     14062     14065     14062     14059
     14059     14060     14059     14061     14059     14056     14056     14057
     14056     14058     14056     14053     14053     14054     14053     14055
     14053     14050     14050     14051     14050     14052     14050     14047
     14047     14048     14047     14049     14047     14044     14044     14045
     14044     14046     14044     14041     14041     14042     14041     14043
     14041     14038     14038     14039     14038     14040     14038     14035
     14035     14036     14035     14037     14035     14032     14032     14033
     14032     14034     14032     14029     14029     14030     14029     14031
     14029     14026     14026     14027     14026     14028     14026     14024
     14024     14025     14022     14023     14022     14018     14018     14019
     14018     14020     14020     14021     14018     14016     14016     14017
     14016     14011     14011     14012     14011     14013     14011     14009
     14009     14006     14010     14006     14007     14006     14008     14006
     14010     14003     14003     14004     14003     14005     14003     14000
     14000     14001     14000     14002     14000     13987     13987     13996
     13987     13992     13987     13988     13996     13997     13996     13998
     13996     13999     13992     13993     13992     13994     13992     13995
     13988     13989     13988     13990     13988     13991     14016     14014
     14014     14015     14014     14066     14066     14068     14068     14069
     14068     14070     14068     14071     14071     14072     14071     14073
     14071     14074     14074     14075     14074     14076     14074     14077
     14077     14078     14077     14079     14077     14080     14080     14081
     14080     14082     14080     14083     14083     14084     14083     14085
     14083     14086     14086     14087     14086     14088     14086     14089
     14089     14090     14091     14092     14091     14093     14093     14094
     14093     14095     14093     14096     14096     14097     14096     14098
     14096     14099     14099     14100     14099     14101     14099     14102
     14102     14103     14102     14104     14102     14105     14105     14106
     14105     14107     14105     14108     14108     14109     14108     14110
     14108     14111     14111     14112     14111     14113     14111     14114
     14114     14115     14114     14116     14114     14117     14022     14024
     14089     14091     14066     14067     17917     17918     17917     17919
     17917     17920     17917     17921     17921     17922     17921     17923
     17921     17924     17924     17925     17924     17926     17924     17930
     17932     17931     17930     17927     17927     17931     17927     17928
     17927     17929     17932     17933     17932     17934     17932     17935
     17935     17936     17935     17943     17935     17937     17943     17944
     17943     17945     17943     17946     17937     17938     17938     17940
     17938     17939     17940     17941     17940     17942     17940     17952
     17952     17953     17952     17954     17952     17955     17955     17956
     17955     17957     17955     17958     17958     17959     17958     17960
     17960     17961     17960     17962     17962     17963     17962     17964
     17962     17965     17965     17966     17965     17967     17967     17968
     17967     17969     17969     17970     17969     17971     17969     17972
     17972     17973     17972     17974     17974     17975     17974     17976
     17976     17977     17976     17978     17976     17979     17979     17980
     17979     17981     17981     17982     17981     17983     17983     17984
     17983     17985     17983     17986     17986     17987     17986     17988
     17986     17989     17989     17990     17989     17991     17989     17992
     17992     17993     17992     17994     17992     17995     17995     17996
     17995     17997     17995     17998     17946     17947     17947     17949
     17947     17948     17949     17950     17949     17951     17949     17999
     17999     18000     17999     18001     17999     18002     18002     18003
     18002     18004     18002     18005     18005     18006     18005     18007
     18005     18008     18008     18009     18008     18010     18008     18011
     18011     18012     18011     18013     18011     18014     18014     18015
     18014     18016     18014     18017     18017     18018     18017     18019
     18017     18020     18020     18021     18020     18022     18020     18023
     18023     18024     18023     18025     18023     18026     18026     18027
     18026     18028     18026     18029     18029     18030     18029     18031
     18029     18032     18032     18033     18032     18034     18032     18035
     18035     18036     18035     18037     18035     18038     18038     18039
     18038     18040     18038     18041     18041     18042     18041     18043
     18041     18044     18044     18045     18044     18046     18044     18047
      5325      5327      5325      5326      5327      5328      5325      5371
      5371      5372      5371      5373      5371      5368      5368      5369
      5368      5370      5325      5329      5329      5330      5329      5331
      5329      5332      5332      5363      5363      5368      5363      5364
      5364      5365      5364      5366      5364      5367      5332      5333
      5333      5334      5333      5335      5335      5336      5335      5337
      5335      5338      5338      5339      5338      5361      5361      5362
      5361      5363      5338      5340      5340      5341      5340      5350
      5350      5355      5355      5356      5355      5357      5355      5358
      5358      5359      5358      5360      5358      5361      5350      5351
      5351      5352      5351      5353      5351      5354      5340      5342
      5342      5343      5342      5344      5342      5345      5345      5346
      5345      5347      5345      5348      5348      5349      5348      5350
      5348      5374      5374      5375      5374      5376      5376      5377
      5376      5378      5376      5379      5374      5380      5380      5381
      5380      5382      5380      5383      5383      5384      5383      5385
      5383      5386      5386      5387      5386      5388      5386      5389
      5389      5390      5389      5391      5391      5392      5391      5393
      5391      5394      5389      5395      5395      5396      5395      5397
      5395      5398     14193     14194     14193     14195     14193     14196
     14193     14190     14190     14191     14190     14192     14190     14187
     14187     14188     14187     14189     14187     14184     14184     14185
     14184     14186     14184     14181     14181     14182     14181     14183
     14181     14178     14178     14179     14178     14180     14178     14175
     14175     14176     14175     14177     14175     14172     14172     14173
     14172     14174     14172     14169     14169     14170     14169     14171
     14169     14166     14166     14167     14166     14168     14166     14163
     14163     14164     14163     14165     14163     14160     14160     14161
     14160     14162     14160     14157     14157     14158     14157     14159
     14157     14155     14155     14156     14153     14154     14153     14149
     14149     14150     14149     14151     14151     14152     14149     14147
     14147     14148     14147     14142     14142     14143     14142     14144
     14142     14140     14140     14137     14141     14137     14138     14137
     14139     14137     14141     14134     14134     14135     14134     14136
     14134     14131     14131     14132     14131     14133     14131     14118
     14118     14127     14118     14123     14118     14119     14127     14128
     14127     14129     14127     14130     14123     14124     14123     14125
     14123     14126     14119     14120     14119     14121     14119     14122
     14147     14145     14145     14146     14145     14197     14197     14199
     14199     14200     14199     14201     14199     14202     14202     14203
     14202     14204     14202     14205     14205     14206     14205     14207
     14205     14208     14208     14209     14208     14210     14208     14211
     14211     14212     14211     14213     14211     14214     14214     14215
     14214     14216     14214     14217     14217     14218     14217     14219
     14217     14220     14220     14221     14222     14223     14222     14224
     14224     14225     14224     14226     14224     14227     14227     14228
     14227     14229     14227     14230     14230     14231     14230     14232
     14230     14233     14233     14234     14233     14235     14233     14236
     14236     14237     14236     14238     14236     14239     14239     14240
     14239     14241     14239     14242     14242     14243     14242     14244
     14242     14245     14245     14246     14245     14247     14245     14248
     14153     14155     14220     14222     14197     14198     14324     14325
     14324     14326     14324     14327     14324     14321     14321     14322
     14321     14323     14321     14318     14318     14319     14318     14320
     14318     14315     14315     14316     14315     14317     14315     14312
     14312     14313     14312     14314     14312     14309     14309     14310
     14309     14311     14309     14306     14306     14307     14306     14308
     14306     14303     14303     14304     14303     14305     14303     14300
     14300     14301     14300     14302     14300     14297     14297     14298
     14297     14299     14297     14294     14294     14295     14294     14296
     14294     14291     14291     14292     14291     14293     14291     14288
     14288     14289     14288     14290     14288     14286     14286     14287
     14284     14285     14284     14280     14280     14281     14280     14282
     14282     14283     14280     14278     14278     14279     14278     14273
     14273     14274     14273     14275     14273     14271     14271     14268
     14272     14268     14269     14268     14270     14268     14272     14265
     14265     14266     14265     14267     14265     14262     14262     14263
     14262     14264     14262     14249     14249     14258     14249     14254
     14249     14250     14258     14259     14258     14260     14258     14261
     14254     14255     14254     14256     14254     14257     14250     14251
     14250     14252     14250     14253     14278     14276     14276     14277
     14276     14328     14328     14330     14330     14331     14330     14332
     14330     14333     14333     14334     14333     14335     14333     14336
     14336     14337     14336     14338     14336     14339     14339     14340
     14339     14341     14339     14342     14342     14343     14342     14344
     14342     14345     14345     14346     14345     14347     14345     14348
     14348     14349     14348     14350     14348     14351     14351     14352
     14353     14354     14353     14355     14355     14356     14355     14357
     14355     14358     14358     14359     14358     14360     14358     14361
     14361     14362     14361     14363     14361     14364     14364     14365
     14364     14366     14364     14367     14367     14368     14367     14369
     14367     14370     14370     14371     14370     14372     14370     14373
     14373     14374     14373     14375     14373     14376     14376     14377
     14376     14378     14376     14379     14284     14286     14351     14353
     14328     14329     20593     20594     20593     20598     20593     20602
     20594     20595     20594     20596     20594     20597     20598     20599
     20598     20600     20598     20601     20602     20603     20602     20604
     20602     20605     20593     20606     20606     20607     20606     20608
     20606     20609     20609     20610     20609     20611     20609     20615
     20616     20617     20615     20612     20612     20616     20612     20613
     20612     20614     20617     20618     20617     20619     20617     20620
     20620     20621     20620     20628     20620     20622     20628     20629
     20628     20630     20628     20631     20622     20623     20623     20625
     20623     20624     20625     20626     20625     20627     20625     20637
     20637     20638     20637     20639     20637     20640     20640     20641
     20640     20642     20640     20643     20643     20644     20643     20645
     20643     20646     20646     20647     20646     20648     20646     20649
     20649     20650     20649     20651     20649     20652     20652     20653
     20652     20654     20652     20655     20655     20656     20655     20657
     20657     20658     20657     20659     20659     20660     20659     20661
     20659     20662     20662     20663     20662     20664     20664     20665
     20664     20666     20666     20667     20666     20668     20666     20669
     20669     20670     20669     20671     20669     20672     20672     20673
     20672     20674     20672     20675     20675     20676     20675     20677
     20675     20678     20678     20679     20678     20680     20678     20681
     20631     20632     20632     20634     20632     20633     20634     20635
     20634     20636     20634     20682     20682     20683     20682     20684
     20682     20685     20685     20686     20685     20687     20685     20688
     20688     20689     20688     20690     20688     20691     20691     20692
     20691     20693     20691     20694     20694     20695     20694     20696
     20694     20697     20697     20698     20697     20699     20697     20700
     20700     20701     20700     20702     20700     20703     20703     20704
     20703     20705     20703     20706     20706     20707     20706     20708
     20706     20709     20709     20710     20709     20711     20709     20712
     20712     20713     20712     20714     20712     20715     20715     20716
     20715     20717     20715     20718     20718     20719     20718     20720
     20718     20721     20721     20722     20721     20723     20721     20724
     20724     20725     20724     20726     20724     20727     20727     20728
     20727     20729     20727     20730     14455     14456     14455     14457
     14455     14458     14455     14452     14452     14453     14452     14454
     14452     14449     14449     14450     14449     14451     14449     14446
     14446     14447     14446     14448     14446     14443     14443     14444
     14443     14445     14443     14440     14440     14441     14440     14442
     14440     14437     14437     14438     14437     14439     14437     14434
     14434     14435     14434     14436     14434     14431     14431     14432
     14431     14433     14431     14428     14428     14429     14428     14430
     14428     14425     14425     14426     14425     14427     14425     14422
     14422     14423     14422     14424     14422     14419     14419     14420
     14419     14421     14419     14417     14417     14418     14415     14416
     14415     14411     14411     14412     14411     14413     14413     14414
     14411     14409     14409     14410     14409     14404     14404     14405
     14404     14406     14404     14402     14402     14399     14403     14399
     14400     14399     14401     14399     14403     14396     14396     14397
     14396     14398     14396     14393     14393     14394     14393     14395
     14393     14380     14380     14389     14380     14385     14380     14381
     14389     14390     14389     14391     14389     14392     14385     14386
     14385     14387     14385     14388     14381     14382     14381     14383
     14381     14384     14409     14407     14407     14408     14407     14459
     14459     14461     14461     14462     14461     14463     14461     14464
     14464     14465     14464     14466     14464     14467     14467     14468
     14467     14469     14467     14470     14470     14471     14470     14472
     14470     14473     14473     14474     14473     14475     14473     14476
     14476     14477     14476     14478     14476     14479     14479     14480
     14479     14481     14479     14482     14482     14483     14484     14485
     14484     14486     14486     14487     14486     14488     14486     14489
     14489     14490     14489     14491     14489     14492     14492     14493
     14492     14494     14492     14495     14495     14496     14495     14497
     14495     14498     14498     14499     14498     14500     14498     14501
     14501     14502     14501     14503     14501     14504     14504     14505
     14504     14506     14504     14507     14507     14508     14507     14509
     14507     14510     14415     14417     14482     14484     14459     14460
     14586     14587     14586     14588     14586     14589     14586     14583
     14583     14584     14583     14585     14583     14580     14580     14581
     14580     14582     14580     14577     14577     14578     14577     14579
     14577     14574     14574     14575     14574     14576     14574     14571
     14571     14572     14571     14573     14571     14568     14568     14569
     14568     14570     14568     14565     14565     14566     14565     14567
     14565     14562     14562     14563     14562     14564     14562     14559
     14559     14560     14559     14561     14559     14556     14556     14557
     14556     14558     14556     14553     14553     14554     14553     14555
     14553     14550     14550     14551     14550     14552     14550     14548
     14548     14549     14546     14547     14546     14542     14542     14543
     14542     14544     14544     14545     14542     14540     14540     14541
     14540     14535     14535     14536     14535     14537     14535     14533
     14533     14530     14534     14530     14531     14530     14532     14530
     14534     14527     14527     14528     14527     14529     14527     14524
     14524     14525     14524     14526     14524     14511     14511     14520
     14511     14516     14511     14512     14520     14521     14520     14522
     14520     14523     14516     14517     14516     14518     14516     14519
     14512     14513     14512     14514     14512     14515     14540     14538
     14538     14539     14538     14590     14590     14592     14592     14593
     14592     14594     14592     14595     14595     14596     14595     14597
     14595     14598     14598     14599     14598     14600     14598     14601
     14601     14602     14601     14603     14601     14604     14604     14605
     14604     14606     14604     14607     14607     14608     14607     14609
     14607     14610     14610     14611     14610     14612     14610     14613
     14613     14614     14615     14616     14615     14617     14617     14618
     14617     14619     14617     14620     14620     14621     14620     14622
     14620     14623     14623     14624     14623     14625     14623     14626
     14626     14627     14626     14628     14626     14629     14629     14630
     14629     14631     14629     14632     14632     14633     14632     14634
     14632     14635     14635     14636     14635     14637     14635     14638
     14638     14639     14638     14640     14638     14641     14546     14548
     14613     14615     14590     14591      2129      2130      2129      2131
      2129      2132      2129      2133      2137      2135      2135      2133
      2135      2136      2133      2134      2133      2138      2146      2145
      2138      2139      2138      2140      2138      2144      2144      2141
      2141      2145      2141      2142      2141      2143      2146      2147
      2146      2148      2146      2149      2149      2150      2149      2157
      2149      2151      2157      2158      2157      2159      2157      2160
      2151      2152      2152      2154      2152      2153      2154      2155
      2154      2156      2154      2166      2166      2167      2166      2168
      2166      2169      2169      2170      2169      2171      2169      2172
      2172      2173      2172      2174      2174      2175      2174      2176
      2176      2177      2176      2178      2176      2179      2179      2180
      2179      2181      2181      2182      2181      2183      2183      2184
      2183      2185      2183      2186      2186      2187      2186      2188
      2188      2189      2188      2190      2190      2191      2190      2192
      2190      2193      2193      2194      2193      2195      2195      2196
      2195      2197      2197      2198      2197      2199      2197      2200
      2200      2201      2200      2202      2200      2203      2203      2204
      2203      2205      2203      2206      2206      2207      2206      2208
      2206      2209      2209      2210      2209      2211      2209      2212
      2160      2161      2161      2163      2161      2162      2163      2164
      2163      2165      2163      2213      2213      2214      2213      2215
      2213      2216      2216      2217      2216      2218      2216      2219
      2219      2220      2219      2221      2219      2222      2222      2223
      2222      2224      2222      2225      2225      2226      2225      2227
      2225      2228      2228      2229      2228      2230      2228      2231
      2231      2232      2231      2233      2231      2234      2234      2235
      2234      2236      2234      2237      2237      2238      2237      2239
      2237      2240      2240      2241      2240      2242      2240      2243
      2243      2244      2243      2245      2243      2246      2246      2247
      2246      2248      2246      2249      2249      2250      2249      2251
      2249      2252      2252      2253      2252      2254      2252      2255
      2255      2256      2255      2257      2255      2258      2258      2259
      2258      2260      2258      2261      5399      5401      5399      5400
      5401      5402      5399      5445      5445      5446      5445      5447
      5445      5442      5442      5443      5442      5444      5399      5403
      5403      5404      5403      5405      5403      5406      5406      5437
      5437      5442      5437      5438      5438      5439      5438      5440
      5438      5441      5406      5407      5407      5408      5407      5409
      5409      5410      5409      5411      5409      5412      5412      5413
      5412      5435      5435      5436      5435      5437      5412      5414
      5414      5415      5414      5424      5424      5429      5429      5430
      5429      5431      5429      5432      5432      5433      5432      5434
      5432      5435      5424      5425      5425      5426      5425      5427
      5425      5428      5414      5416      5416      5417      5416      5418
      5416      5419      5419      5420      5419      5421      5419      5422
      5422      5423      5422      5424      5422      5448      5448      5449
      5448      5450      5450      5451      5450      5452      5450      5453
      5448      5454      5454      5455      5454      5456      5454      5457
      5457      5458      5457      5459      5457      5460      5460      5461
      5460      5462      5460      5463      5463      5464      5463      5465
      5465      5466      5465      5467      5465      5468      5463      5469
      5469      5470      5469      5471      5469      5472     14717     14718
     14717     14719     14717     14720     14717     14714     14714     14715
     14714     14716     14714     14711     14711     14712     14711     14713
     14711     14708     14708     14709     14708     14710     14708     14705
     14705     14706     14705     14707     14705     14702     14702     14703
     14702     14704     14702     14699     14699     14700     14699     14701
     14699     14696     14696     14697     14696     14698     14696     14693
     14693     14694     14693     14695     14693     14690     14690     14691
     14690     14692     14690     14687     14687     14688     14687     14689
     14687     14684     14684     14685     14684     14686     14684     14681
     14681     14682     14681     14683     14681     14679     14679     14680
     14677     14678     14677     14673     14673     14674     14673     14675
     14675     14676     14673     14671     14671     14672     14671     14666
     14666     14667     14666     14668     14666     14664     14664     14661
     14665     14661     14662     14661     14663     14661     14665     14658
     14658     14659     14658     14660     14658     14655     14655     14656
     14655     14657     14655     14642     14642     14651     14642     14647
     14642     14643     14651     14652     14651     14653     14651     14654
     14647     14648     14647     14649     14647     14650     14643     14644
     14643     14645     14643     14646     14671     14669     14669     14670
     14669     14721     14721     14723     14723     14724     14723     14725
     14723     14726     14726     14727     14726     14728     14726     14729
     14729     14730     14729     14731     14729     14732     14732     14733
     14732     14734     14732     14735     14735     14736     14735     14737
     14735     14738     14738     14739     14738     14740     14738     14741
     14741     14742     14741     14743     14741     14744     14744     14745
     14746     14747     14746     14748     14748     14749     14748     14750
     14748     14751     14751     14752     14751     14753     14751     14754
     14754     14755     14754     14756     14754     14757     14757     14758
     14757     14759     14757     14760     14760     14761     14760     14762
     14760     14763     14763     14764     14763     14765     14763     14766
     14766     14767     14766     14768     14766     14769     14769     14770
     14769     14771     14769     14772     14677     14679     14744     14746
     14721     14722     18048     18049     18048     18050     18048     18051
     18048     18052     18052     18053     18052     18054     18052     18055
     18055     18056     18055     18057     18055     18061     18063     18062
     18061     18058     18058     18062     18058     18059     18058     18060
     18063     18064     18063     18065     18063     18066     18066     18067
     18066     18074     18066     18068     18074     18075     18074     18076
     18074     18077     18068     18069     18069     18071     18069     18070
     18071     18072     18071     18073     18071     18083     18083     18084
     18083     18085     18083     18086     18086     18087     18086     18088
     18086     18089     18089     18090     18089     18091     18091     18092
     18091     18093     18093     18094     18093     18095     18093     18096
     18096     18097     18096     18098     18098     18099     18098     18100
     18100     18101     18100     18102     18100     18103     18103     18104
     18103     18105     18105     18106     18105     18107     18107     18108
     18107     18109     18107     18110     18110     18111     18110     18112
     18112     18113     18112     18114     18114     18115     18114     18116
     18114     18117     18117     18118     18117     18119     18117     18120
     18120     18121     18120     18122     18120     18123     18123     18124
     18123     18125     18123     18126     18126     18127     18126     18128
     18126     18129     18077     18078     18078     18080     18078     18079
     18080     18081     18080     18082     18080     18130     18130     18131
     18130     18132     18130     18133     18133     18134     18133     18135
     18133     18136     18136     18137     18136     18138     18136     18139
     18139     18140     18139     18141     18139     18142     18142     18143
     18142     18144     18142     18145     18145     18146     18145     18147
     18145     18148     18148     18149     18148     18150     18148     18151
     18151     18152     18151     18153     18151     18154     18154     18155
     18154     18156     18154     18157     18157     18158     18157     18159
     18157     18160     18160     18161     18160     18162     18160     18163
     18163     18164     18163     18165     18163     18166     18166     18167
     18166     18168     18166     18169     18169     18170     18169     18171
     18169     18172     18172     18173     18172     18174     18172     18175
     18175     18176     18175     18177     18175     18178     20731     20732
     20731     20736     20731     20740     20732     20733     20732     20734
     20732     20735     20736     20737     20736     20738     20736     20739
     20740     20741     20740     20742     20740     20743     20731     20744
     20744     20745     20744     20746     20744     20747     20747     20748
     20747     20749     20747     20753     20754     20755     20753     20750
     20750     20754     20750     20751     20750     20752     20755     20756
     20755     20757     20755     20758     20758     20759     20758     20766
     20758     20760     20766     20767     20766     20768     20766     20769
     20760     20761     20761     20763     20761     20762     20763     20764
     20763     20765     20763     20775     20775     20776     20775     20777
     20775     20778     20778     20779     20778     20780     20778     20781
     20781     20782     20781     20783     20781     20784     20784     20785
     20784     20786     20784     20787     20787     20788     20787     20789
     20787     20790     20790     20791     20790     20792     20790     20793
     20793     20794     20793     20795     20795     20796     20795     20797
     20797     20798     20797     20799     20797     20800     20800     20801
     20800     20802     20802     20803     20802     20804     20804     20805
     20804     20806     20804     20807     20807     20808     20807     20809
     20807     20810     20810     20811     20810     20812     20810     20813
     20813     20814     20813     20815     20813     20816     20816     20817
     20816     20818     20816     20819     20769     20770     20770     20772
     20770     20771     20772     20773     20772     20774     20772     20820
     20820     20821     20820     20822     20820     20823     20823     20824
     20823     20825     20823     20826     20826     20827     20826     20828
     20826     20829     20829     20830     20829     20831     20829     20832
     20832     20833     20832     20834     20832     20835     20835     20836
     20835     20837     20835     20838     20838     20839     20838     20840
     20838     20841     20841     20842     20841     20843     20841     20844
     20844     20845     20844     20846     20844     20847     20847     20848
     20847     20849     20847     20850     20850     20851     20850     20852
     20850     20853     20853     20854     20853     20855     20853     20856
     20856     20857     20856     20858     20856     20859     20859     20860
     20859     20861     20859     20862     20862     20863     20862     20864
     20862     20865     20865     20866     20865     20867     20865     20868
     14848     14849     14848     14850     14848     14851     14848     14845
     14845     14846     14845     14847     14845     14842     14842     14843
     14842     14844     14842     14839     14839     14840     14839     14841
     14839     14836     14836     14837     14836     14838     14836     14833
     14833     14834     14833     14835     14833     14830     14830     14831
     14830     14832     14830     14827     14827     14828     14827     14829
     14827     14824     14824     14825     14824     14826     14824     14821
     14821     14822     14821     14823     14821     14818     14818     14819
     14818     14820     14818     14815     14815     14816     14815     14817
     14815     14812     14812     14813     14812     14814     14812     14810
     14810     14811     14808     14809     14808     14804     14804     14805
     14804     14806     14806     14807     14804     14802     14802     14803
     14802     14797     14797     14798     14797     14799     14797     14795
     14795     14792     14796     14792     14793     14792     14794     14792
     14796     14789     14789     14790     14789     14791     14789     14786
     14786     14787     14786     14788     14786     14773     14773     14782
     14773     14778     14773     14774     14782     14783     14782     14784
     14782     14785     14778     14779     14778     14780     14778     14781
     14774     14775     14774     14776     14774     14777     14802     14800
     14800     14801     14800     14852     14852     14854     14854     14855
     14854     14856     14854     14857     14857     14858     14857     14859
     14857     14860     14860     14861     14860     14862     14860     14863
     14863     14864     14863     14865     14863     14866     14866     14867
     14866     14868     14866     14869     14869     14870     14869     14871
     14869     14872     14872     14873     14872     14874     14872     14875
     14875     14876     14877     14878     14877     14879     14879     14880
     14879     14881     14879     14882     14882     14883     14882     14884
     14882     14885     14885     14886     14885     14887     14885     14888
     14888     14889     14888     14890     14888     14891     14891     14892
     14891     14893     14891     14894     14894     14895     14894     14896
     14894     14897     14897     14898     14897     14899     14897     14900
     14900     14901     14900     14902     14900     14903     14808     14810
     14875     14877     14852     14853      5473      5475      5473      5474
      5475      5476      5473      5519      5519      5520      5519      5521
      5519      5516      5516      5517      5516      5518      5473      5477
      5477      5478      5477      5479      5477      5480      5480      5511
      5511      5516      5511      5512      5512      5513      5512      5514
      5512      5515      5480      5481      5481      5482      5481      5483
      5483      5484      5483      5485      5483      5486      5486      5487
      5486      5509      5509      5510      5509      5511      5486      5488
      5488      5489      5488      5498      5498      5503      5503      5504
      5503      5505      5503      5506      5506      5507      5506      5508
      5506      5509      5498      5499      5499      5500      5499      5501
      5499      5502      5488      5490      5490      5491      5490      5492
      5490      5493      5493      5494      5493      5495      5493      5496
      5496      5497      5496      5498      5496      5522      5522      5523
      5522      5524      5524      5525      5524      5526      5524      5527
      5522      5528      5528      5529      5528      5530      5528      5531
      5531      5532      5531      5533      5531      5534      5534      5535
      5534      5536      5534      5537      5537      5538      5537      5539
      5539      5540      5539      5541      5539      5542      5537      5543
      5543      5544      5543      5545      5543      5546      5547      5549
      5547      5548      5549      5550      5547      5593      5593      5594
      5593      5595      5593      5590      5590      5591      5590      5592
      5547      5551      5551      5552      5551      5553      5551      5554
      5554      5585      5585      5590      5585      5586      5586      5587
      5586      5588      5586      5589      5554      5555      5555      5556
      5555      5557      5557      5558      5557      5559      5557      5560
      5560      5561      5560      5583      5583      5584      5583      5585
      5560      5562      5562      5563      5562      5572      5572      5577
      5577      5578      5577      5579      5577      5580      5580      5581
      5580      5582      5580      5583      5572      5573      5573      5574
      5573      5575      5573      5576      5562      5564      5564      5565
      5564      5566      5564      5567      5567      5568      5567      5569
      5567      5570      5570      5571      5570      5572      5570      5596
      5596      5597      5596      5598      5598      5599      5598      5600
      5598      5601      5596      5602      5602      5603      5602      5604
      5602      5605      5605      5606      5605      5607      5605      5608
      5608      5609      5608      5610      5608      5611      5611      5612
      5611      5613      5613      5614      5613      5615      5613      5616
      5611      5617      5617      5618      5617      5619      5617      5620
      5621      5623      5621      5622      5623      5624      5621      5667
      5667      5668      5667      5669      5667      5664      5664      5665
      5664      5666      5621      5625      5625      5626      5625      5627
      5625      5628      5628      5659      5659      5664      5659      5660
      5660      5661      5660      5662      5660      5663      5628      5629
      5629      5630      5629      5631      5631      5632      5631      5633
      5631      5634      5634      5635      5634      5657      5657      5658
      5657      5659      5634      5636      5636      5637      5636      5646
      5646      5651      5651      5652      5651      5653      5651      5654
      5654      5655      5654      5656      5654      5657      5646      5647
      5647      5648      5647      5649      5647      5650      5636      5638
      5638      5639      5638      5640      5638      5641      5641      5642
      5641      5643      5641      5644      5644      5645      5644      5646
      5644      5670      5670      5671      5670      5672      5672      5673
      5672      5674      5672      5675      5670      5676      5676      5677
      5676      5678      5676      5679      5679      5680      5679      5681
      5679      5682      5682      5683      5682      5684      5682      5685
      5685      5686      5685      5687      5687      5688      5687      5689
      5687      5690      5685      5691      5691      5692      5691      5693
      5691      5694      5695      5697      5695      5696      5697      5698
      5695      5741      5741      5742      5741      5743      5741      5738
      5738      5739      5738      5740      5695      5699      5699      5700
      5699      5701      5699      5702      5702      5733      5733      5738
      5733      5734      5734      5735      5734      5736      5734      5737
      5702      5703      5703      5704      5703      5705      5705      5706
      5705      5707      5705      5708      5708      5709      5708      5731
      5731      5732      5731      5733      5708      5710      5710      5711
      5710      5720      5720      5725      5725      5726      5725      5727
      5725      5728      5728      5729      5728      5730      5728      5731
      5720      5721      5721      5722      5721      5723      5721      5724
      5710      5712      5712      5713      5712      5714      5712      5715
      5715      5716      5715      5717      5715      5718      5718      5719
      5718      5720      5718      5744      5744      5745      5744      5746
      5746      5747      5746      5748      5746      5749      5744      5750
      5750      5751      5750      5752      5750      5753      5753      5754
      5753      5755      5753      5756      5756      5757      5756      5758
      5756      5759      5759      5760      5759      5761      5761      5762
      5761      5763      5761      5764      5759      5765      5765      5766
      5765      5767      5765      5768     18179     18180     18179     18181
     18179     18182     18179     18183     18183     18184     18183     18185
     18183     18186     18186     18187     18186     18188     18186     18192
     18194     18193     18192     18189     18189     18193     18189     18190
     18189     18191     18194     18195     18194     18196     18194     18197
     18197     18198     18197     18205     18197     18199     18205     18206
     18205     18207     18205     18208     18199     18200     18200     18202
     18200     18201     18202     18203     18202     18204     18202     18214
     18214     18215     18214     18216     18214     18217     18217     18218
     18217     18219     18217     18220     18220     18221     18220     18222
     18222     18223     18222     18224     18224     18225     18224     18226
     18224     18227     18227     18228     18227     18229     18229     18230
     18229     18231     18231     18232     18231     18233     18231     18234
     18234     18235     18234     18236     18236     18237     18236     18238
     18238     18239     18238     18240     18238     18241     18241     18242
     18241     18243     18243     18244     18243     18245     18245     18246
     18245     18247     18245     18248     18248     18249     18248     18250
     18248     18251     18251     18252     18251     18253     18251     18254
     18254     18255     18254     18256     18254     18257     18257     18258
     18257     18259     18257     18260     18208     18209     18209     18211
     18209     18210     18211     18212     18211     18213     18211     18261
     18261     18262     18261     18263     18261     18264     18264     18265
     18264     18266     18264     18267     18267     18268     18267     18269
     18267     18270     18270     18271     18270     18272     18270     18273
     18273     18274     18273     18275     18273     18276     18276     18277
     18276     18278     18276     18279     18279     18280     18279     18281
     18279     18282     18282     18283     18282     18284     18282     18285
     18285     18286     18285     18287     18285     18288     18288     18289
     18288     18290     18288     18291     18291     18292     18291     18293
     18291     18294     18294     18295     18294     18296     18294     18297
     18297     18298     18297     18299     18297     18300     18300     18301
     18300     18302     18300     18303     18303     18304     18303     18305
     18303     18306     18306     18307     18306     18308     18306     18309
      5769      5771      5769      5770      5771      5772      5769      5815
      5815      5816      5815      5817      5815      5812      5812      5813
      5812      5814      5769      5773      5773      5774      5773      5775
      5773      5776      5776      5807      5807      5812      5807      5808
      5808      5809      5808      5810      5808      5811      5776      5777
      5777      5778      5777      5779      5779      5780      5779      5781
      5779      5782      5782      5783      5782      5805      5805      5806
      5805      5807      5782      5784      5784      5785      5784      5794
      5794      5799      5799      5800      5799      5801      5799      5802
      5802      5803      5802      5804      5802      5805      5794      5795
      5795      5796      5795      5797      5795      5798      5784      5786
      5786      5787      5786      5788      5786      5789      5789      5790
      5789      5791      5789      5792      5792      5793      5792      5794
      5792      5818      5818      5819      5818      5820      5820      5821
      5820      5822      5820      5823      5818      5824      5824      5825
      5824      5826      5824      5827      5827      5828      5827      5829
      5827      5830      5830      5831      5830      5832      5830      5833
      5833      5834      5833      5835      5835      5836      5835      5837
      5835      5838      5833      5839      5839      5840      5839      5841
      5839      5842      7984      7985      7984      7986      7984      7987
      7984      7988      7988      7989      7988      7990      7988      7991
      7991      7992      7991      7993      7991      7997      7999      7998
      7997      7994      7994      7998      7994      7995      7994      7996
      7999      8000      7999      8001      7999      8002      8002      8003
      8002      8010      8002      8004      8010      8011      8010      8012
      8010      8013      8004      8005      8005      8007      8005      8006
      8007      8008      8007      8009      8007      8019      8019      8020
      8019      8021      8019      8022      8022      8023      8022      8024
      8022      8025      8025      8026      8025      8027      8025      8028
      8028      8029      8028      8030      8028      8031      8031      8032
      8031      8033      8031      8034      8034      8035      8034      8036
      8034      8037      8037      8038      8037      8039      8039      8040
      8039      8041      8041      8042      8041      8043      8041      8044
      8044      8045      8044      8046      8044      8047      8047      8048
      8047      8049      8047      8050      8050      8051      8050      8052
      8050      8053      8053      8054      8053      8055      8053      8056
      8056      8057      8056      8058      8056      8059      8059      8060
      8059      8061      8059      8062      8062      8063      8062      8064
      8062      8065      8013      8014      8014      8016      8014      8015
      8016      8017      8016      8018      8016      8066      8066      8067
      8066      8068      8066      8069      8069      8070      8069      8071
      8069      8072      8072      8073      8072      8074      8072      8075
      8075      8076      8075      8077      8075      8078      8078      8079
      8078      8080      8078      8081      8081      8082      8081      8083
      8081      8084      8084      8085      8084      8086      8084      8087
      8087      8088      8087      8089      8087      8090      8090      8091
      8090      8092      8090      8093      8093      8094      8093      8095
      8093      8096      8096      8097      8096      8098      8096      8099
      8099      8100      8099      8101      8099      8102      8102      8103
      8102      8104      8102      8105      8105      8106      8105      8107
      8105      8108      8108      8109      8108      8110      8108      8111
      8111      8112      8111      8113      8111      8114     21413     21417
     21413     21421     21413     21425     21417     21418     21417     21419
     21417     21420     21421     21422     21421     21423     21421     21424
     21425     21426     21425     21427     21425     21428     21413     21414
     21414     21415     21414     21416     21414     21429     21429     21430
     21429     21431     21429     21435     21436     21437     21435     21432
     21432     21436     21432     21433     21432     21434     21437     21438
     21437     21439     21437     21440     21440     21441     21440     21448
     21440     21442     21448     21449     21448     21450     21448     21451
     21442     21443     21443     21445     21443     21444     21445     21446
     21445     21447     21445     21457     21457     21458     21457     21459
     21457     21460     21460     21461     21460     21462     21460     21463
     21463     21464     21463     21465     21463     21466     21466     21467
     21466     21468     21466     21469     21469     21470     21469     21471
     21469     21472     21472     21473     21472     21474     21472     21475
     21475     21476     21475     21477     21477     21478     21477     21479
     21479     21480     21479     21481     21479     21482     21482     21483
     21482     21484     21482     21485     21485     21486     21485     21487
     21485     21488     21488     21489     21488     21490     21488     21491
     21491     21492     21491     21493     21491     21494     21494     21495
     21494     21496     21494     21497     21497     21498     21497     21499
     21497     21500     21500     21501     21500     21502     21500     21503
     21451     21452     21452     21454     21452     21453     21454     21455
     21454     21456     21454     21504     21504     21505     21504     21506
     21504     21507     21507     21508     21507     21509     21507     21510
     21510     21511     21510     21512     21510     21513     21513     21514
     21513     21515     21513     21516     21516     21517     21516     21518
     21516     21519     21519     21520     21519     21521     21519     21522
     21522     21523     21522     21524     21522     21525     21525     21526
     21525     21527     21525     21528     21528     21529     21528     21530
     21528     21531     21531     21532     21531     21533     21531     21534
     21534     21535     21534     21536     21534     21537     21537     21538
     21537     21539     21537     21540     21540     21541     21540     21542
     21540     21543     21543     21544     21543     21545     21543     21546
     18310     18311     18310     18312     18310     18313     18310     18314
     18314     18315     18314     18316     18314     18317     18317     18318
     18317     18319     18317     18323     18325     18324     18323     18320
     18320     18324     18320     18321     18320     18322     18325     18326
     18325     18327     18325     18328     18328     18329     18328     18336
     18328     18330     18336     18337     18336     18338     18336     18339
     18330     18331     18331     18333     18331     18332     18333     18334
     18333     18335     18333     18345     18345     18346     18345     18347
     18345     18348     18348     18349     18348     18350     18348     18351
     18351     18352     18351     18353     18353     18354     18353     18355
     18355     18356     18355     18357     18355     18358     18358     18359
     18358     18360     18360     18361     18360     18362     18362     18363
     18362     18364     18362     18365     18365     18366     18365     18367
     18367     18368     18367     18369     18369     18370     18369     18371
     18369     18372     18372     18373     18372     18374     18374     18375
     18374     18376     18376     18377     18376     18378     18376     18379
     18379     18380     18379     18381     18379     18382     18382     18383
     18382     18384     18382     18385     18385     18386     18385     18387
     18385     18388     18388     18389     18388     18390     18388     18391
     18339     18340     18340     18342     18340     18341     18342     18343
     18342     18344     18342     18392     18392     18393     18392     18394
     18392     18395     18395     18396     18395     18397     18395     18398
     18398     18399     18398     18400     18398     18401     18401     18402
     18401     18403     18401     18404     18404     18405     18404     18406
     18404     18407     18407     18408     18407     18409     18407     18410
     18410     18411     18410     18412     18410     18413     18413     18414
     18413     18415     18413     18416     18416     18417     18416     18418
     18416     18419     18419     18420     18419     18421     18419     18422
     18422     18423     18422     18424     18422     18425     18425     18426
     18425     18427     18425     18428     18428     18429     18428     18430
     18428     18431     18431     18432     18431     18433     18431     18434
     18434     18435     18434     18436     18434     18437     18437     18438
     18437     18439     18437     18440      9637      9641      9637      9645
      9637      9649      9641      9642      9641      9643      9641      9644
      9645      9646      9645      9647      9645      9648      9649      9650
      9649      9651      9649      9652      9637      9638      9638      9639
      9638      9640      9638      9653      9653      9654      9653      9655
      9653      9659      9660      9661      9659      9656      9656      9660
      9656      9657      9656      9658      9661      9662      9661      9663
      9661      9664      9664      9665      9664      9672      9664      9666
      9672      9673      9672      9674      9672      9675      9666      9667
      9667      9669      9667      9668      9669      9670      9669      9671
      9669      9681      9681      9682      9681      9683      9681      9684
      9684      9685      9684      9686      9684      9687      9687      9688
      9687      9689      9689      9690      9689      9691      9691      9692
      9691      9693      9691      9694      9694      9695      9694      9696
      9696      9697      9696      9698      9698      9699      9698      9700
      9698      9701      9701      9702      9701      9703      9703      9704
      9703      9705      9705      9706      9705      9707      9705      9708
      9708      9709      9708      9710      9710      9711      9710      9712
      9712      9713      9712      9714      9712      9715      9715      9716
      9715      9717      9715      9718      9718      9719      9718      9720
      9718      9721      9721      9722      9721      9723      9721      9724
      9724      9725      9724      9726      9724      9727      9675      9676
      9676      9678      9676      9677      9678      9679      9678      9680
      9678      9728      9728      9729      9728      9730      9728      9731
      9731      9732      9731      9733      9731      9734      9734      9735
      9734      9736      9734      9737      9737      9738      9737      9739
      9737      9740      9740      9741      9740      9742      9740      9743
      9743      9744      9743      9745      9743      9746      9746      9747
      9746      9748      9746      9749      9749      9750      9749      9751
      9749      9752      9752      9753      9752      9754      9752      9755
      9755      9756      9755      9757      9755      9758      9758      9759
      9758      9760      9758      9761      9761      9762      9761      9763
      9761      9764      9764      9765      9764      9766      9764      9767
      9767      9768      9767      9769      9767      9770      9770      9771
      9770      9772      9770      9773      9773      9774      9773      9775
      9773      9776      2262      2263      2262      2264      2262      2265
      2262      2266      2270      2268      2268      2266      2268      2269
      2266      2267      2266      2271      2279      2278      2271      2272
      2271      2273      2271      2277      2277      2274      2274      2278
      2274      2275      2274      2276      2279      2280      2279      2281
      2279      2282      2282      2283      2282      2290      2282      2284
      2290      2291      2290      2292      2290      2293      2284      2285
      2285      2287      2285      2286      2287      2288      2287      2289
      2287      2299      2299      2300      2299      2301      2299      2302
      2302      2303      2302      2304      2302      2305      2305      2306
      2305      2307      2307      2308      2307      2309      2309      2310
      2309      2311      2309      2312      2312      2313      2312      2314
      2314      2315      2314      2316      2316      2317      2316      2318
      2316      2319      2319      2320      2319      2321      2321      2322
      2321      2323      2323      2324      2323      2325      2323      2326
      2326      2327      2326      2328      2328      2329      2328      2330
      2330      2331      2330      2332      2330      2333      2333      2334
      2333      2335      2333      2336      2336      2337      2336      2338
      2336      2339      2339      2340      2339      2341      2339      2342
      2342      2343      2342      2344      2342      2345      2293      2294
      2294      2296      2294      2295      2296      2297      2296      2298
      2296      2346      2346      2347      2346      2348      2346      2349
      2349      2350      2349      2351      2349      2352      2352      2353
      2352      2354      2352      2355      2355      2356      2355      2357
      2355      2358      2358      2359      2358      2360      2358      2361
      2361      2362      2361      2363      2361      2364      2364      2365
      2364      2366      2364      2367      2367      2368      2367      2369
      2367      2370      2370      2371      2370      2372      2370      2373
      2373      2374      2373      2375      2373      2376      2376      2377
      2376      2378      2376      2379      2379      2380      2379      2381
      2379      2382      2382      2383      2382      2384      2382      2385
      2385      2386      2385      2387      2385      2388      2388      2389
      2388      2390      2388      2391      2391      2392      2391      2393
      2391      2394     22130     22131     22130     22126     22130     22110
     22130     22135     22110     22111     22110     22112     22112     22113
     22110     22114     22114     22115     22114     22116     22116     22117
     22114     22118     22118     22119     22118     22120     22120     22121
     22118     22122     22122     22123     22122     22126     22126     22127
     22126     22128     22128     22129     22122     22124     22124     22125
     22135     22132     22132     22136     22132     22133     22132     22134
     22136     22137     22137     22138     22137     22139     22137     22140
     22140     22141     22140     22148     22140     22142     22148     22149
     22148     22150     22148     22151     22142     22143     22143     22145
     22143     22144     22145     22146     22145     22147     22145     22157
     22157     22158     22157     22159     22157     22160     22160     22161
     22160     22162     22160     22163     22163     22164     22163     22165
     22165     22166     22165     22167     22167     22168     22167     22169
     22167     22170     22170     22171     22170     22172     22172     22173
     22172     22174     22174     22175     22174     22176     22174     22177
     22177     22178     22177     22179     22179     22180     22179     22181
     22181     22182     22181     22183     22181     22184     22184     22185
     22184     22186     22186     22187     22186     22188     22188     22189
     22188     22190     22188     22191     22191     22192     22191     22193
     22191     22194     22194     22195     22194     22196     22194     22197
     22197     22198     22197     22199     22197     22200     22200     22201
     22200     22202     22200     22203     22151     22152     22152     22154
     22152     22153     22154     22155     22154     22156     22154     22204
     22204     22205     22204     22206     22204     22207     22207     22208
     22207     22209     22207     22210     22210     22211     22210     22212
     22210     22213     22213     22214     22213     22215     22213     22216
     22216     22217     22216     22218     22216     22219     22219     22220
     22219     22221     22219     22222     22222     22223     22222     22224
     22222     22225     22225     22226     22225     22227     22225     22228
     22228     22229     22228     22230     22228     22231     22231     22232
     22231     22233     22231     22234     22234     22235     22234     22236
     22234     22237     22237     22238     22237     22239     22237     22240
     22240     22241     22240     22242     22240     22243     22243     22244
     22243     22245     22243     22246     22246     22247     22246     22248
     22246     22249     22249     22250     22249     22251     22249     22252
     18441     18442     18441     18443     18441     18444     18441     18445
     18445     18446     18445     18447     18445     18448     18448     18449
     18448     18450     18448     18454     18456     18455     18454     18451
     18451     18455     18451     18452     18451     18453     18456     18457
     18456     18458     18456     18459     18459     18460     18459     18467
     18459     18461     18467     18468     18467     18469     18467     18470
     18461     18462     18462     18464     18462     18463     18464     18465
     18464     18466     18464     18476     18476     18477     18476     18478
     18476     18479     18479     18480     18479     18481     18479     18482
     18482     18483     18482     18484     18484     18485     18484     18486
     18486     18487     18486     18488     18486     18489     18489     18490
     18489     18491     18491     18492     18491     18493     18493     18494
     18493     18495     18493     18496     18496     18497     18496     18498
     18498     18499     18498     18500     18500     18501     18500     18502
     18500     18503     18503     18504     18503     18505     18505     18506
     18505     18507     18507     18508     18507     18509     18507     18510
     18510     18511     18510     18512     18510     18513     18513     18514
     18513     18515     18513     18516     18516     18517     18516     18518
     18516     18519     18519     18520     18519     18521     18519     18522
     18470     18471     18471     18473     18471     18472     18473     18474
     18473     18475     18473     18523     18523     18524     18523     18525
     18523     18526     18526     18527     18526     18528     18526     18529
     18529     18530     18529     18531     18529     18532     18532     18533
     18532     18534     18532     18535     18535     18536     18535     18537
     18535     18538     18538     18539     18538     18540     18538     18541
     18541     18542     18541     18543     18541     18544     18544     18545
     18544     18546     18544     18547     18547     18548     18547     18549
     18547     18550     18550     18551     18550     18552     18550     18553
     18553     18554     18553     18555     18553     18556     18556     18557
     18556     18558     18556     18559     18559     18560     18559     18561
     18559     18562     18562     18563     18562     18564     18562     18565
     18565     18566     18565     18567     18565     18568     18568     18569
     18568     18570     18568     18571     18572     18573     18572     18574
     18572     18575     18572     18576     18576     18577     18576     18578
     18576     18579     18579     18580     18579     18581     18579     18585
     18587     18586     18585     18582     18582     18586     18582     18583
     18582     18584     18587     18588     18587     18589     18587     18590
     18590     18591     18590     18598     18590     18592     18598     18599
     18598     18600     18598     18601     18592     18593     18593     18595
     18593     18594     18595     18596     18595     18597     18595     18607
     18607     18608     18607     18609     18607     18610     18610     18611
     18610     18612     18610     18613     18613     18614     18613     18615
     18615     18616     18615     18617     18617     18618     18617     18619
     18617     18620     18620     18621     18620     18622     18622     18623
     18622     18624     18624     18625     18624     18626     18624     18627
     18627     18628     18627     18629     18629     18630     18629     18631
     18631     18632     18631     18633     18631     18634     18634     18635
     18634     18636     18636     18637     18636     18638     18638     18639
     18638     18640     18638     18641     18641     18642     18641     18643
     18641     18644     18644     18645     18644     18646     18644     18647
     18647     18648     18647     18649     18647     18650     18650     18651
     18650     18652     18650     18653     18601     18602     18602     18604
     18602     18603     18604     18605     18604     18606     18604     18654
     18654     18655     18654     18656     18654     18657     18657     18658
     18657     18659     18657     18660     18660     18661     18660     18662
     18660     18663     18663     18664     18663     18665     18663     18666
     18666     18667     18666     18668     18666     18669     18669     18670
     18669     18671     18669     18672     18672     18673     18672     18674
     18672     18675     18675     18676     18675     18677     18675     18678
     18678     18679     18678     18680     18678     18681     18681     18682
     18681     18683     18681     18684     18684     18685     18684     18686
     18684     18687     18687     18688     18687     18689     18687     18690
     18690     18691     18690     18692     18690     18693     18693     18694
     18693     18695     18693     18696     18696     18697     18696     18698
     18696     18699     18699     18700     18699     18701     18699     18702
     14979     14980     14979     14981     14979     14982     14979     14976
     14976     14977     14976     14978     14976     14973     14973     14974
     14973     14975     14973     14970     14970     14971     14970     14972
     14970     14967     14967     14968     14967     14969     14967     14964
     14964     14965     14964     14966     14964     14961     14961     14962
     14961     14963     14961     14958     14958     14959     14958     14960
     14958     14955     14955     14956     14955     14957     14955     14952
     14952     14953     14952     14954     14952     14949     14949     14950
     14949     14951     14949     14946     14946     14947     14946     14948
     14946     14943     14943     14944     14943     14945     14943     14941
     14941     14942     14939     14940     14939     14935     14935     14936
     14935     14937     14937     14938     14935     14933     14933     14934
     14933     14928     14928     14929     14928     14930     14928     14926
     14926     14923     14927     14923     14924     14923     14925     14923
     14927     14920     14920     14921     14920     14922     14920     14917
     14917     14918     14917     14919     14917     14904     14904     14913
     14904     14909     14904     14905     14913     14914     14913     14915
     14913     14916     14909     14910     14909     14911     14909     14912
     14905     14906     14905     14907     14905     14908     14933     14931
     14931     14932     14931     14983     14983     14985     14985     14986
     14985     14987     14985     14988     14988     14989     14988     14990
     14988     14991     14991     14992     14991     14993     14991     14994
     14994     14995     14994     14996     14994     14997     14997     14998
     14997     14999     14997     15000     15000     15001     15000     15002
     15000     15003     15003     15004     15003     15005     15003     15006
     15006     15007     15008     15009     15008     15010     15010     15011
     15010     15012     15010     15013     15013     15014     15013     15015
     15013     15016     15016     15017     15016     15018     15016     15019
     15019     15020     15019     15021     15019     15022     15022     15023
     15022     15024     15022     15025     15025     15026     15025     15027
     15025     15028     15028     15029     15028     15030     15028     15031
     15031     15032     15031     15033     15031     15034     14939     14941
     15006     15008     14983     14984     15110     15111     15110     15112
     15110     15113     15110     15107     15107     15108     15107     15109
     15107     15104     15104     15105     15104     15106     15104     15101
     15101     15102     15101     15103     15101     15098     15098     15099
     15098     15100     15098     15095     15095     15096     15095     15097
     15095     15092     15092     15093     15092     15094     15092     15089
     15089     15090     15089     15091     15089     15086     15086     15087
     15086     15088     15086     15083     15083     15084     15083     15085
     15083     15080     15080     15081     15080     15082     15080     15077
     15077     15078     15077     15079     15077     15074     15074     15075
     15074     15076     15074     15072     15072     15073     15070     15071
     15070     15066     15066     15067     15066     15068     15068     15069
     15066     15064     15064     15065     15064     15059     15059     15060
     15059     15061     15059     15057     15057     15054     15058     15054
     15055     15054     15056     15054     15058     15051     15051     15052
     15051     15053     15051     15048     15048     15049     15048     15050
     15048     15035     15035     15044     15035     15040     15035     15036
     15044     15045     15044     15046     15044     15047     15040     15041
     15040     15042     15040     15043     15036     15037     15036     15038
     15036     15039     15064     15062     15062     15063     15062     15114
     15114     15116     15116     15117     15116     15118     15116     15119
     15119     15120     15119     15121     15119     15122     15122     15123
     15122     15124     15122     15125     15125     15126     15125     15127
     15125     15128     15128     15129     15128     15130     15128     15131
     15131     15132     15131     15133     15131     15134     15134     15135
     15134     15136     15134     15137     15137     15138     15139     15140
     15139     15141     15141     15142     15141     15143     15141     15144
     15144     15145     15144     15146     15144     15147     15147     15148
     15147     15149     15147     15150     15150     15151     15150     15152
     15150     15153     15153     15154     15153     15155     15153     15156
     15156     15157     15156     15158     15156     15159     15159     15160
     15159     15161     15159     15162     15162     15163     15162     15164
     15162     15165     15070     15072     15137     15139     15114     15115
      5843      5845      5843      5844      5845      5846      5843      5889
      5889      5890      5889      5891      5889      5886      5886      5887
      5886      5888      5843      5847      5847      5848      5847      5849
      5847      5850      5850      5881      5881      5886      5881      5882
      5882      5883      5882      5884      5882      5885      5850      5851
      5851      5852      5851      5853      5853      5854      5853      5855
      5853      5856      5856      5857      5856      5879      5879      5880
      5879      5881      5856      5858      5858      5859      5858      5868
      5868      5873      5873      5874      5873      5875      5873      5876
      5876      5877      5876      5878      5876      5879      5868      5869
      5869      5870      5869      5871      5869      5872      5858      5860
      5860      5861      5860      5862      5860      5863      5863      5864
      5863      5865      5863      5866      5866      5867      5866      5868
      5866      5892      5892      5893      5892      5894      5894      5895
      5894      5896      5894      5897      5892      5898      5898      5899
      5898      5900      5898      5901      5901      5902      5901      5903
      5901      5904      5904      5905      5904      5906      5904      5907
      5907      5908      5907      5909      5909      5910      5909      5911
      5909      5912      5907      5913      5913      5914      5913      5915
      5913      5916     18703     18704     18703     18705     18703     18706
     18703     18707     18707     18708     18707     18709     18707     18710
     18710     18711     18710     18712     18710     18716     18718     18717
     18716     18713     18713     18717     18713     18714     18713     18715
     18718     18719     18718     18720     18718     18721     18721     18722
     18721     18729     18721     18723     18729     18730     18729     18731
     18729     18732     18723     18724     18724     18726     18724     18725
     18726     18727     18726     18728     18726     18738     18738     18739
     18738     18740     18738     18741     18741     18742     18741     18743
     18741     18744     18744     18745     18744     18746     18746     18747
     18746     18748     18748     18749     18748     18750     18748     18751
     18751     18752     18751     18753     18753     18754     18753     18755
     18755     18756     18755     18757     18755     18758     18758     18759
     18758     18760     18760     18761     18760     18762     18762     18763
     18762     18764     18762     18765     18765     18766     18765     18767
     18767     18768     18767     18769     18769     18770     18769     18771
     18769     18772     18772     18773     18772     18774     18772     18775
     18775     18776     18775     18777     18775     18778     18778     18779
     18778     18780     18778     18781     18781     18782     18781     18783
     18781     18784     18732     18733     18733     18735     18733     18734
     18735     18736     18735     18737     18735     18785     18785     18786
     18785     18787     18785     18788     18788     18789     18788     18790
     18788     18791     18791     18792     18791     18793     18791     18794
     18794     18795     18794     18796     18794     18797     18797     18798
     18797     18799     18797     18800     18800     18801     18800     18802
     18800     18803     18803     18804     18803     18805     18803     18806
     18806     18807     18806     18808     18806     18809     18809     18810
     18809     18811     18809     18812     18812     18813     18812     18814
     18812     18815     18815     18816     18815     18817     18815     18818
     18818     18819     18818     18820     18818     18821     18821     18822
     18821     18823     18821     18824     18824     18825     18824     18826
     18824     18827     18827     18828     18827     18829     18827     18830
     18830     18831     18830     18832     18830     18833      5917      5919
      5917      5918      5919      5920      5917      5963      5963      5964
      5963      5965      5963      5960      5960      5961      5960      5962
      5917      5921      5921      5922      5921      5923      5921      5924
      5924      5955      5955      5960      5955      5956      5956      5957
      5956      5958      5956      5959      5924      5925      5925      5926
      5925      5927      5927      5928      5927      5929      5927      5930
      5930      5931      5930      5953      5953      5954      5953      5955
      5930      5932      5932      5933      5932      5942      5942      5947
      5947      5948      5947      5949      5947      5950      5950      5951
      5950      5952      5950      5953      5942      5943      5943      5944
      5943      5945      5943      5946      5932      5934      5934      5935
      5934      5936      5934      5937      5937      5938      5937      5939
      5937      5940      5940      5941      5940      5942      5940      5966
      5966      5967      5966      5968      5968      5969      5968      5970
      5968      5971      5966      5972      5972      5973      5972      5974
      5972      5975      5975      5976      5975      5977      5975      5978
      5978      5979      5978      5980      5978      5981      5981      5982
      5981      5983      5983      5984      5983      5985      5983      5986
      5981      5987      5987      5988      5987      5989      5987      5990
     21547     21551     21547     21555     21547     21559     21551     21552
     21551     21553     21551     21554     21555     21556     21555     21557
     21555     21558     21559     21560     21559     21561     21559     21562
     21547     21548     21548     21549     21548     21550     21548     21563
     21563     21564     21563     21565     21563     21569     21570     21571
     21569     21566     21566     21570     21566     21567     21566     21568
     21571     21572     21571     21573     21571     21574     21574     21575
     21574     21582     21574     21576     21582     21583     21582     21584
     21582     21585     21576     21577     21577     21579     21577     21578
     21579     21580     21579     21581     21579     21591     21591     21592
     21591     21593     21591     21594     21594     21595     21594     21596
     21594     21597     21597     21598     21597     21599     21597     21600
     21600     21601     21600     21602     21600     21603     21603     21604
     21603     21605     21603     21606     21606     21607     21606     21608
     21606     21609     21609     21610     21609     21611     21611     21612
     21611     21613     21613     21614     21613     21615     21613     21616
     21616     21617     21616     21618     21616     21619     21619     21620
     21619     21621     21619     21622     21622     21623     21622     21624
     21622     21625     21625     21626     21625     21627     21625     21628
     21628     21629     21628     21630     21628     21631     21631     21632
     21631     21633     21631     21634     21634     21635     21634     21636
     21634     21637     21585     21586     21586     21588     21586     21587
     21588     21589     21588     21590     21588     21638     21638     21639
     21638     21640     21638     21641     21641     21642     21641     21643
     21641     21644     21644     21645     21644     21646     21644     21647
     21647     21648     21647     21649     21647     21650     21650     21651
     21650     21652     21650     21653     21653     21654     21653     21655
     21653     21656     21656     21657     21656     21658     21656     21659
     21659     21660     21659     21661     21659     21662     21662     21663
     21662     21664     21662     21665     21665     21666     21665     21667
     21665     21668     21668     21669     21668     21670     21668     21671
     21671     21672     21671     21673     21671     21674     21674     21675
     21674     21676     21674     21677     21677     21678     21677     21679
     21677     21680      5991      5993      5991      5992      5993      5994
      5991      6037      6037      6038      6037      6039      6037      6034
      6034      6035      6034      6036      5991      5995      5995      5996
      5995      5997      5995      5998      5998      6029      6029      6034
      6029      6030      6030      6031      6030      6032      6030      6033
      5998      5999      5999      6000      5999      6001      6001      6002
      6001      6003      6001      6004      6004      6005      6004      6027
      6027      6028      6027      6029      6004      6006      6006      6007
      6006      6016      6016      6021      6021      6022      6021      6023
      6021      6024      6024      6025      6024      6026      6024      6027
      6016      6017      6017      6018      6017      6019      6017      6020
      6006      6008      6008      6009      6008      6010      6008      6011
      6011      6012      6011      6013      6011      6014      6014      6015
      6014      6016      6014      6040      6040      6041      6040      6042
      6042      6043      6042      6044      6042      6045      6040      6046
      6046      6047      6046      6048      6046      6049      6049      6050
      6049      6051      6049      6052      6052      6053      6052      6054
      6052      6055      6055      6056      6055      6057      6057      6058
      6057      6059      6057      6060      6055      6061      6061      6062
      6061      6063      6061      6064      9777      9781      9777      9785
      9777      9789      9781      9782      9781      9783      9781      9784
      9785      9786      9785      9787      9785      9788      9789      9790
      9789      9791      9789      9792      9777      9778      9778      9779
      9778      9780      9778      9793      9793      9794      9793      9795
      9793      9799      9800      9801      9799      9796      9796      9800
      9796      9797      9796      9798      9801      9802      9801      9803
      9801      9804      9804      9805      9804      9812      9804      9806
      9812      9813      9812      9814      9812      9815      9806      9807
      9807      9809      9807      9808      9809      9810      9809      9811
      9809      9821      9821      9822      9821      9823      9821      9824
      9824      9825      9824      9826      9824      9827      9827      9828
      9827      9829      9829      9830      9829      9831      9831      9832
      9831      9833      9831      9834      9834      9835      9834      9836
      9836      9837      9836      9838      9838      9839      9838      9840
      9838      9841      9841      9842      9841      9843      9843      9844
      9843      9845      9845      9846      9845      9847      9845      9848
      9848      9849      9848      9850      9850      9851      9850      9852
      9852      9853      9852      9854      9852      9855      9855      9856
      9855      9857      9855      9858      9858      9859      9858      9860
      9858      9861      9861      9862      9861      9863      9861      9864
      9864      9865      9864      9866      9864      9867      9815      9816
      9816      9818      9816      9817      9818      9819      9818      9820
      9818      9868      9868      9869      9868      9870      9868      9871
      9871      9872      9871      9873      9871      9874      9874      9875
      9874      9876      9874      9877      9877      9878      9877      9879
      9877      9880      9880      9881      9880      9882      9880      9883
      9883      9884      9883      9885      9883      9886      9886      9887
      9886      9888      9886      9889      9889      9890      9889      9891
      9889      9892      9892      9893      9892      9894      9892      9895
      9895      9896      9895      9897      9895      9898      9898      9899
      9898      9900      9898      9901      9901      9902      9901      9903
      9901      9904      9904      9905      9904      9906      9904      9907
      9907      9908      9907      9909      9907      9910      9910      9911
      9910      9912      9910      9913      9913      9914      9913      9915
      9913      9916      2395      2396      2395      2397      2395      2398
      2395      2399      2403      2401      2401      2399      2401      2402
      2399      2400      2399      2404      2412      2411      2404      2405
      2404      2406      2404      2410      2410      2407      2407      2411
      2407      2408      2407      2409      2412      2413      2412      2414
      2412      2415      2415      2416      2415      2423      2415      2417
      2423      2424      2423      2425      2423      2426      2417      2418
      2418      2420      2418      2419      2420      2421      2420      2422
      2420      2432      2432      2433      2432      2434      2432      2435
      2435      2436      2435      2437      2435      2438      2438      2439
      2438      2440      2440      2441      2440      2442      2442      2443
      2442      2444      2442      2445      2445      2446      2445      2447
      2447      2448      2447      2449      2449      2450      2449      2451
      2449      2452      2452      2453      2452      2454      2454      2455
      2454      2456      2456      2457      2456      2458      2456      2459
      2459      2460      2459      2461      2461      2462      2461      2463
      2463      2464      2463      2465      2463      2466      2466      2467
      2466      2468      2466      2469      2469      2470      2469      2471
      2469      2472      2472      2473      2472      2474      2472      2475
      2475      2476      2475      2477      2475      2478      2426      2427
      2427      2429      2427      2428      2429      2430      2429      2431
      2429      2479      2479      2480      2479      2481      2479      2482
      2482      2483      2482      2484      2482      2485      2485      2486
      2485      2487      2485      2488      2488      2489      2488      2490
      2488      2491      2491      2492      2491      2493      2491      2494
      2494      2495      2494      2496      2494      2497      2497      2498
      2497      2499      2497      2500      2500      2501      2500      2502
      2500      2503      2503      2504      2503      2505      2503      2506
      2506      2507      2506      2508      2506      2509      2509      2510
      2509      2511      2509      2512      2512      2513      2512      2514
      2512      2515      2515      2516      2515      2517      2515      2518
      2518      2519      2518      2520      2518      2521      2521      2522
      2521      2523      2521      2524      2524      2525      2524      2526
      2524      2527     15241     15242     15241     15243     15241     15244
     15241     15238     15238     15239     15238     15240     15238     15235
     15235     15236     15235     15237     15235     15232     15232     15233
     15232     15234     15232     15229     15229     15230     15229     15231
     15229     15226     15226     15227     15226     15228     15226     15223
     15223     15224     15223     15225     15223     15220     15220     15221
     15220     15222     15220     15217     15217     15218     15217     15219
     15217     15214     15214     15215     15214     15216     15214     15211
     15211     15212     15211     15213     15211     15208     15208     15209
     15208     15210     15208     15205     15205     15206     15205     15207
     15205     15203     15203     15204     15201     15202     15201     15197
     15197     15198     15197     15199     15199     15200     15197     15195
     15195     15196     15195     15190     15190     15191     15190     15192
     15190     15188     15188     15185     15189     15185     15186     15185
     15187     15185     15189     15182     15182     15183     15182     15184
     15182     15179     15179     15180     15179     15181     15179     15166
     15166     15175     15166     15171     15166     15167     15175     15176
     15175     15177     15175     15178     15171     15172     15171     15173
     15171     15174     15167     15168     15167     15169     15167     15170
     15195     15193     15193     15194     15193     15245     15245     15247
     15247     15248     15247     15249     15247     15250     15250     15251
     15250     15252     15250     15253     15253     15254     15253     15255
     15253     15256     15256     15257     15256     15258     15256     15259
     15259     15260     15259     15261     15259     15262     15262     15263
     15262     15264     15262     15265     15265     15266     15265     15267
     15265     15268     15268     15269     15270     15271     15270     15272
     15272     15273     15272     15274     15272     15275     15275     15276
     15275     15277     15275     15278     15278     15279     15278     15280
     15278     15281     15281     15282     15281     15283     15281     15284
     15284     15285     15284     15286     15284     15287     15287     15288
     15287     15289     15287     15290     15290     15291     15290     15292
     15290     15293     15293     15294     15293     15295     15293     15296
     15201     15203     15268     15270     15245     15246      2528      2529
      2528      2530      2528      2531      2528      2532      2536      2534
      2534      2532      2534      2535      2532      2533      2532      2537
      2545      2544      2537      2538      2537      2539      2537      2543
      2543      2540      2540      2544      2540      2541      2540      2542
      2545      2546      2545      2547      2545      2548      2548      2549
      2548      2556      2548      2550      2556      2557      2556      2558
      2556      2559      2550      2551      2551      2553      2551      2552
      2553      2554      2553      2555      2553      2565      2565      2566
      2565      2567      2565      2568      2568      2569      2568      2570
      2568      2571      2571      2572      2571      2573      2573      2574
      2573      2575      2575      2576      2575      2577      2575      2578
      2578      2579      2578      2580      2580      2581      2580      2582
      2582      2583      2582      2584      2582      2585      2585      2586
      2585      2587      2587      2588      2587      2589      2589      2590
      2589      2591      2589      2592      2592      2593      2592      2594
      2594      2595      2594      2596      2596      2597      2596      2598
      2596      2599      2599      2600      2599      2601      2599      2602
      2602      2603      2602      2604      2602      2605      2605      2606
      2605      2607      2605      2608      2608      2609      2608      2610
      2608      2611      2559      2560      2560      2562      2560      2561
      2562      2563      2562      2564      2562      2612      2612      2613
      2612      2614      2612      2615      2615      2616      2615      2617
      2615      2618      2618      2619      2618      2620      2618      2621
      2621      2622      2621      2623      2621      2624      2624      2625
      2624      2626      2624      2627      2627      2628      2627      2629
      2627      2630      2630      2631      2630      2632      2630      2633
      2633      2634      2633      2635      2633      2636      2636      2637
      2636      2638      2636      2639      2639      2640      2639      2641
      2639      2642      2642      2643      2642      2644      2642      2645
      2645      2646      2645      2647      2645      2648      2648      2649
      2648      2650      2648      2651      2651      2652      2651      2653
      2651      2654      2654      2655      2654      2656      2654      2657
      2657      2658      2657      2659      2657      2660     18834     18835
     18834     18836     18834     18837     18834     18838     18838     18839
     18838     18840     18838     18841     18841     18842     18841     18843
     18841     18847     18849     18848     18847     18844     18844     18848
     18844     18845     18844     18846     18849     18850     18849     18851
     18849     18852     18852     18853     18852     18860     18852     18854
     18860     18861     18860     18862     18860     18863     18854     18855
     18855     18857     18855     18856     18857     18858     18857     18859
     18857     18869     18869     18870     18869     18871     18869     18872
     18872     18873     18872     18874     18872     18875     18875     18876
     18875     18877     18877     18878     18877     18879     18879     18880
     18879     18881     18879     18882     18882     18883     18882     18884
     18884     18885     18884     18886     18886     18887     18886     18888
     18886     18889     18889     18890     18889     18891     18891     18892
     18891     18893     18893     18894     18893     18895     18893     18896
     18896     18897     18896     18898     18898     18899     18898     18900
     18900     18901     18900     18902     18900     18903     18903     18904
     18903     18905     18903     18906     18906     18907     18906     18908
     18906     18909     18909     18910     18909     18911     18909     18912
     18912     18913     18912     18914     18912     18915     18863     18864
     18864     18866     18864     18865     18866     18867     18866     18868
     18866     18916     18916     18917     18916     18918     18916     18919
     18919     18920     18919     18921     18919     18922     18922     18923
     18922     18924     18922     18925     18925     18926     18925     18927
     18925     18928     18928     18929     18928     18930     18928     18931
     18931     18932     18931     18933     18931     18934     18934     18935
     18934     18936     18934     18937     18937     18938     18937     18939
     18937     18940     18940     18941     18940     18942     18940     18943
     18943     18944     18943     18945     18943     18946     18946     18947
     18946     18948     18946     18949     18949     18950     18949     18951
     18949     18952     18952     18953     18952     18954     18952     18955
     18955     18956     18955     18957     18955     18958     18958     18959
     18958     18960     18958     18961     18961     18962     18961     18963
     18961     18964      6065      6067      6065      6066      6067      6068
      6065      6111      6111      6112      6111      6113      6111      6108
      6108      6109      6108      6110      6065      6069      6069      6070
      6069      6071      6069      6072      6072      6103      6103      6108
      6103      6104      6104      6105      6104      6106      6104      6107
      6072      6073      6073      6074      6073      6075      6075      6076
      6075      6077      6075      6078      6078      6079      6078      6101
      6101      6102      6101      6103      6078      6080      6080      6081
      6080      6090      6090      6095      6095      6096      6095      6097
      6095      6098      6098      6099      6098      6100      6098      6101
      6090      6091      6091      6092      6091      6093      6091      6094
      6080      6082      6082      6083      6082      6084      6082      6085
      6085      6086      6085      6087      6085      6088      6088      6089
      6088      6090      6088      6114      6114      6115      6114      6116
      6116      6117      6116      6118      6116      6119      6114      6120
      6120      6121      6120      6122      6120      6123      6123      6124
      6123      6125      6123      6126      6126      6127      6126      6128
      6126      6129      6129      6130      6129      6131      6131      6132
      6131      6133      6131      6134      6129      6135      6135      6136
      6135      6137      6135      6138      6139      6141      6139      6140
      6141      6142      6139      6185      6185      6186      6185      6187
      6185      6182      6182      6183      6182      6184      6139      6143
      6143      6144      6143      6145      6143      6146      6146      6177
      6177      6182      6177      6178      6178      6179      6178      6180
      6178      6181      6146      6147      6147      6148      6147      6149
      6149      6150      6149      6151      6149      6152      6152      6153
      6152      6175      6175      6176      6175      6177      6152      6154
      6154      6155      6154      6164      6164      6169      6169      6170
      6169      6171      6169      6172      6172      6173      6172      6174
      6172      6175      6164      6165      6165      6166      6165      6167
      6165      6168      6154      6156      6156      6157      6156      6158
      6156      6159      6159      6160      6159      6161      6159      6162
      6162      6163      6162      6164      6162      6188      6188      6189
      6188      6190      6190      6191      6190      6192      6190      6193
      6188      6194      6194      6195      6194      6196      6194      6197
      6197      6198      6197      6199      6197      6200      6200      6201
      6200      6202      6200      6203      6203      6204      6203      6205
      6205      6206      6205      6207      6205      6208      6203      6209
      6209      6210      6209      6211      6209      6212     20869     20870
     20869     20874     20869     20878     20870     20871     20870     20872
     20870     20873     20874     20875     20874     20876     20874     20877
     20878     20879     20878     20880     20878     20881     20869     20882
     20882     20883     20882     20884     20882     20885     20885     20886
     20885     20887     20885     20891     20892     20893     20891     20888
     20888     20892     20888     20889     20888     20890     20893     20894
     20893     20895     20893     20896     20896     20897     20896     20904
     20896     20898     20904     20905     20904     20906     20904     20907
     20898     20899     20899     20901     20899     20900     20901     20902
     20901     20903     20901     20913     20913     20914     20913     20915
     20913     20916     20916     20917     20916     20918     20916     20919
     20919     20920     20919     20921     20919     20922     20922     20923
     20922     20924     20922     20925     20925     20926     20925     20927
     20925     20928     20928     20929     20928     20930     20928     20931
     20931     20932     20931     20933     20933     20934     20933     20935
     20935     20936     20935     20937     20935     20938     20938     20939
     20938     20940     20940     20941     20940     20942     20942     20943
     20942     20944     20942     20945     20945     20946     20945     20947
     20945     20948     20948     20949     20948     20950     20948     20951
     20951     20952     20951     20953     20951     20954     20954     20955
     20954     20956     20954     20957     20907     20908     20908     20910
     20908     20909     20910     20911     20910     20912     20910     20958
     20958     20959     20958     20960     20958     20961     20961     20962
     20961     20963     20961     20964     20964     20965     20964     20966
     20964     20967     20967     20968     20967     20969     20967     20970
     20970     20971     20970     20972     20970     20973     20973     20974
     20973     20975     20973     20976     20976     20977     20976     20978
     20976     20979     20979     20980     20979     20981     20979     20982
     20982     20983     20982     20984     20982     20985     20985     20986
     20985     20987     20985     20988     20988     20989     20988     20990
     20988     20991     20991     20992     20991     20993     20991     20994
     20994     20995     20994     20996     20994     20997     20997     20998
     20997     20999     20997     21000     21000     21001     21000     21002
     21000     21003     21003     21004     21003     21005     21003     21006
      6213      6215      6213      6214      6215      6216      6213      6259
      6259      6260      6259      6261      6259      6256      6256      6257
      6256      6258      6213      6217      6217      6218      6217      6219
      6217      6220      6220      6251      6251      6256      6251      6252
      6252      6253      6252      6254      6252      6255      6220      6221
      6221      6222      6221      6223      6223      6224      6223      6225
      6223      6226      6226      6227      6226      6249      6249      6250
      6249      6251      6226      6228      6228      6229      6228      6238
      6238      6243      6243      6244      6243      6245      6243      6246
      6246      6247      6246      6248      6246      6249      6238      6239
      6239      6240      6239      6241      6239      6242      6228      6230
      6230      6231      6230      6232      6230      6233      6233      6234
      6233      6235      6233      6236      6236      6237      6236      6238
      6236      6262      6262      6263      6262      6264      6264      6265
      6264      6266      6264      6267      6262      6268      6268      6269
      6268      6270      6268      6271      6271      6272      6271      6273
      6271      6274      6274      6275      6274      6276      6274      6277
      6277      6278      6277      6279      6279      6280      6279      6281
      6279      6282      6277      6283      6283      6284      6283      6285
      6283      6286     18965     18966     18965     18967     18965     18968
     18965     18969     18969     18970     18969     18971     18969     18972
     18972     18973     18972     18974     18972     18978     18980     18979
     18978     18975     18975     18979     18975     18976     18975     18977
     18980     18981     18980     18982     18980     18983     18983     18984
     18983     18991     18983     18985     18991     18992     18991     18993
     18991     18994     18985     18986     18986     18988     18986     18987
     18988     18989     18988     18990     18988     19000     19000     19001
     19000     19002     19000     19003     19003     19004     19003     19005
     19003     19006     19006     19007     19006     19008     19008     19009
     19008     19010     19010     19011     19010     19012     19010     19013
     19013     19014     19013     19015     19015     19016     19015     19017
     19017     19018     19017     19019     19017     19020     19020     19021
     19020     19022     19022     19023     19022     19024     19024     19025
     19024     19026     19024     19027     19027     19028     19027     19029
     19029     19030     19029     19031     19031     19032     19031     19033
     19031     19034     19034     19035     19034     19036     19034     19037
     19037     19038     19037     19039     19037     19040     19040     19041
     19040     19042     19040     19043     19043     19044     19043     19045
     19043     19046     18994     18995     18995     18997     18995     18996
     18997     18998     18997     18999     18997     19047     19047     19048
     19047     19049     19047     19050     19050     19051     19050     19052
     19050     19053     19053     19054     19053     19055     19053     19056
     19056     19057     19056     19058     19056     19059     19059     19060
     19059     19061     19059     19062     19062     19063     19062     19064
     19062     19065     19065     19066     19065     19067     19065     19068
     19068     19069     19068     19070     19068     19071     19071     19072
     19071     19073     19071     19074     19074     19075     19074     19076
     19074     19077     19077     19078     19077     19079     19077     19080
     19080     19081     19080     19082     19080     19083     19083     19084
     19083     19085     19083     19086     19086     19087     19086     19088
     19086     19089     19089     19090     19089     19091     19089     19092
     19092     19093     19092     19094     19092     19095      6287      6289
      6287      6288      6289      6290      6287      6333      6333      6334
      6333      6335      6333      6330      6330      6331      6330      6332
      6287      6291      6291      6292      6291      6293      6291      6294
      6294      6325      6325      6330      6325      6326      6326      6327
      6326      6328      6326      6329      6294      6295      6295      6296
      6295      6297      6297      6298      6297      6299      6297      6300
      6300      6301      6300      6323      6323      6324      6323      6325
      6300      6302      6302      6303      6302      6312      6312      6317
      6317      6318      6317      6319      6317      6320      6320      6321
      6320      6322      6320      6323      6312      6313      6313      6314
      6313      6315      6313      6316      6302      6304      6304      6305
      6304      6306      6304      6307      6307      6308      6307      6309
      6307      6310      6310      6311      6310      6312      6310      6336
      6336      6337      6336      6338      6338      6339      6338      6340
      6338      6341      6336      6342      6342      6343      6342      6344
      6342      6345      6345      6346      6345      6347      6345      6348
      6348      6349      6348      6350      6348      6351      6351      6352
      6351      6353      6353      6354      6353      6355      6353      6356
      6351      6357      6357      6358      6357      6359      6357      6360
      6361      6363      6361      6362      6363      6364      6361      6407
      6407      6408      6407      6409      6407      6404      6404      6405
      6404      6406      6361      6365      6365      6366      6365      6367
      6365      6368      6368      6399      6399      6404      6399      6400
      6400      6401      6400      6402      6400      6403      6368      6369
      6369      6370      6369      6371      6371      6372      6371      6373
      6371      6374      6374      6375      6374      6397      6397      6398
      6397      6399      6374      6376      6376      6377      6376      6386
      6386      6391      6391      6392      6391      6393      6391      6394
      6394      6395      6394      6396      6394      6397      6386      6387
      6387      6388      6387      6389      6387      6390      6376      6378
      6378      6379      6378      6380      6378      6381      6381      6382
      6381      6383      6381      6384      6384      6385      6384      6386
      6384      6410      6410      6411      6410      6412      6412      6413
      6412      6414      6412      6415      6410      6416      6416      6417
      6416      6418      6416      6419      6419      6420      6419      6421
      6419      6422      6422      6423      6422      6424      6422      6425
      6425      6426      6425      6427      6427      6428      6427      6429
      6427      6430      6425      6431      6431      6432      6431      6433
      6431      6434     19096     19097     19096     19098     19096     19099
     19096     19100     19100     19101     19100     19102     19100     19103
     19103     19104     19103     19105     19103     19109     19111     19110
     19109     19106     19106     19110     19106     19107     19106     19108
     19111     19112     19111     19113     19111     19114     19114     19115
     19114     19122     19114     19116     19122     19123     19122     19124
     19122     19125     19116     19117     19117     19119     19117     19118
     19119     19120     19119     19121     19119     19131     19131     19132
     19131     19133     19131     19134     19134     19135     19134     19136
     19134     19137     19137     19138     19137     19139     19139     19140
     19139     19141     19141     19142     19141     19143     19141     19144
     19144     19145     19144     19146     19146     19147     19146     19148
     19148     19149     19148     19150     19148     19151     19151     19152
     19151     19153     19153     19154     19153     19155     19155     19156
     19155     19157     19155     19158     19158     19159     19158     19160
     19160     19161     19160     19162     19162     19163     19162     19164
     19162     19165     19165     19166     19165     19167     19165     19168
     19168     19169     19168     19170     19168     19171     19171     19172
     19171     19173     19171     19174     19174     19175     19174     19176
     19174     19177     19125     19126     19126     19128     19126     19127
     19128     19129     19128     19130     19128     19178     19178     19179
     19178     19180     19178     19181     19181     19182     19181     19183
     19181     19184     19184     19185     19184     19186     19184     19187
     19187     19188     19187     19189     19187     19190     19190     19191
     19190     19192     19190     19193     19193     19194     19193     19195
     19193     19196     19196     19197     19196     19198     19196     19199
     19199     19200     19199     19201     19199     19202     19202     19203
     19202     19204     19202     19205     19205     19206     19205     19207
     19205     19208     19208     19209     19208     19210     19208     19211
     19211     19212     19211     19213     19211     19214     19214     19215
     19214     19216     19214     19217     19217     19218     19217     19219
     19217     19220     19220     19221     19220     19222     19220     19223
     19223     19224     19223     19225     19223     19226     21007     21008
     21007     21012     21007     21016     21008     21009     21008     21010
     21008     21011     21012     21013     21012     21014     21012     21015
     21016     21017     21016     21018     21016     21019     21007     21020
     21020     21021     21020     21022     21020     21023     21023     21024
     21023     21025     21023     21029     21030     21031     21029     21026
     21026     21030     21026     21027     21026     21028     21031     21032
     21031     21033     21031     21034     21034     21035     21034     21042
     21034     21036     21042     21043     21042     21044     21042     21045
     21036     21037     21037     21039     21037     21038     21039     21040
     21039     21041     21039     21051     21051     21052     21051     21053
     21051     21054     21054     21055     21054     21056     21054     21057
     21057     21058     21057     21059     21057     21060     21060     21061
     21060     21062     21060     21063     21063     21064     21063     21065
     21063     21066     21066     21067     21066     21068     21066     21069
     21069     21070     21069     21071     21071     21072     21071     21073
     21073     21074     21073     21075     21073     21076     21076     21077
     21076     21078     21078     21079     21078     21080     21080     21081
     21080     21082     21080     21083     21083     21084     21083     21085
     21083     21086     21086     21087     21086     21088     21086     21089
     21089     21090     21089     21091     21089     21092     21092     21093
     21092     21094     21092     21095     21045     21046     21046     21048
     21046     21047     21048     21049     21048     21050     21048     21096
     21096     21097     21096     21098     21096     21099     21099     21100
     21099     21101     21099     21102     21102     21103     21102     21104
     21102     21105     21105     21106     21105     21107     21105     21108
     21108     21109     21108     21110     21108     21111     21111     21112
     21111     21113     21111     21114     21114     21115     21114     21116
     21114     21117     21117     21118     21117     21119     21117     21120
     21120     21121     21120     21122     21120     21123     21123     21124
     21123     21125     21123     21126     21126     21127     21126     21128
     21126     21129     21129     21130     21129     21131     21129     21132
     21132     21133     21132     21134     21132     21135     21135     21136
     21135     21137     21135     21138     21138     21139     21138     21140
     21138     21141     21141     21142     21141     21143     21141     21144
      6435      6437      6435      6436      6437      6438      6435      6481
      6481      6482      6481      6483      6481      6478      6478      6479
      6478      6480      6435      6439      6439      6440      6439      6441
      6439      6442      6442      6473      6473      6478      6473      6474
      6474      6475      6474      6476      6474      6477      6442      6443
      6443      6444      6443      6445      6445      6446      6445      6447
      6445      6448      6448      6449      6448      6471      6471      6472
      6471      6473      6448      6450      6450      6451      6450      6460
      6460      6465      6465      6466      6465      6467      6465      6468
      6468      6469      6468      6470      6468      6471      6460      6461
      6461      6462      6461      6463      6461      6464      6450      6452
      6452      6453      6452      6454      6452      6455      6455      6456
      6455      6457      6455      6458      6458      6459      6458      6460
      6458      6484      6484      6485      6484      6486      6486      6487
      6486      6488      6486      6489      6484      6490      6490      6491
      6490      6492      6490      6493      6493      6494      6493      6495
      6493      6496      6496      6497      6496      6498      6496      6499
      6499      6500      6499      6501      6501      6502      6501      6503
      6501      6504      6499      6505      6505      6506      6505      6507
      6505      6508     19227     19228     19227     19229     19227     19230
     19227     19231     19231     19232     19231     19233     19231     19234
     19234     19235     19234     19236     19234     19240     19242     19241
     19240     19237     19237     19241     19237     19238     19237     19239
     19242     19243     19242     19244     19242     19245     19245     19246
     19245     19253     19245     19247     19253     19254     19253     19255
     19253     19256     19247     19248     19248     19250     19248     19249
     19250     19251     19250     19252     19250     19262     19262     19263
     19262     19264     19262     19265     19265     19266     19265     19267
     19265     19268     19268     19269     19268     19270     19270     19271
     19270     19272     19272     19273     19272     19274     19272     19275
     19275     19276     19275     19277     19277     19278     19277     19279
     19279     19280     19279     19281     19279     19282     19282     19283
     19282     19284     19284     19285     19284     19286     19286     19287
     19286     19288     19286     19289     19289     19290     19289     19291
     19291     19292     19291     19293     19293     19294     19293     19295
     19293     19296     19296     19297     19296     19298     19296     19299
     19299     19300     19299     19301     19299     19302     19302     19303
     19302     19304     19302     19305     19305     19306     19305     19307
     19305     19308     19256     19257     19257     19259     19257     19258
     19259     19260     19259     19261     19259     19309     19309     19310
     19309     19311     19309     19312     19312     19313     19312     19314
     19312     19315     19315     19316     19315     19317     19315     19318
     19318     19319     19318     19320     19318     19321     19321     19322
     19321     19323     19321     19324     19324     19325     19324     19326
     19324     19327     19327     19328     19327     19329     19327     19330
     19330     19331     19330     19332     19330     19333     19333     19334
     19333     19335     19333     19336     19336     19337     19336     19338
     19336     19339     19339     19340     19339     19341     19339     19342
     19342     19343     19342     19344     19342     19345     19345     19346
     19345     19347     19345     19348     19348     19349     19348     19350
     19348     19351     19351     19352     19351     19353     19351     19354
     19354     19355     19354     19356     19354     19357      8115      8116
      8115      8117      8115      8118      8115      8119      8119      8120
      8119      8121      8119      8122      8122      8123      8122      8124
      8122      8128      8130      8129      8128      8125      8125      8129
      8125      8126      8125      8127      8130      8131      8130      8132
      8130      8133      8133      8134      8133      8141      8133      8135
      8141      8142      8141      8143      8141      8144      8135      8136
      8136      8138      8136      8137      8138      8139      8138      8140
      8138      8150      8150      8151      8150      8152      8150      8153
      8153      8154      8153      8155      8153      8156      8156      8157
      8156      8158      8156      8159      8159      8160      8159      8161
      8159      8162      8162      8163      8162      8164      8162      8165
      8165      8166      8165      8167      8165      8168      8168      8169
      8168      8170      8170      8171      8170      8172      8172      8173
      8172      8174      8172      8175      8175      8176      8175      8177
      8175      8178      8178      8179      8178      8180      8178      8181
      8181      8182      8181      8183      8181      8184      8184      8185
      8184      8186      8184      8187      8187      8188      8187      8189
      8187      8190      8190      8191      8190      8192      8190      8193
      8193      8194      8193      8195      8193      8196      8144      8145
      8145      8147      8145      8146      8147      8148      8147      8149
      8147      8197      8197      8198      8197      8199      8197      8200
      8200      8201      8200      8202      8200      8203      8203      8204
      8203      8205      8203      8206      8206      8207      8206      8208
      8206      8209      8209      8210      8209      8211      8209      8212
      8212      8213      8212      8214      8212      8215      8215      8216
      8215      8217      8215      8218      8218      8219      8218      8220
      8218      8221      8221      8222      8221      8223      8221      8224
      8224      8225      8224      8226      8224      8227      8227      8228
      8227      8229      8227      8230      8230      8231      8230      8232
      8230      8233      8233      8234      8233      8235      8233      8236
      8236      8237      8236      8238      8236      8239      8239      8240
      8239      8241      8239      8242      8242      8243      8242      8244
      8242      8245      8246      8247      8246      8248      8246      8249
      8246      8250      8250      8251      8250      8252      8250      8253
      8253      8254      8253      8255      8253      8259      8261      8260
      8259      8256      8256      8260      8256      8257      8256      8258
      8261      8262      8261      8263      8261      8264      8264      8265
      8264      8272      8264      8266      8272      8273      8272      8274
      8272      8275      8266      8267      8267      8269      8267      8268
      8269      8270      8269      8271      8269      8281      8281      8282
      8281      8283      8281      8284      8284      8285      8284      8286
      8284      8287      8287      8288      8287      8289      8287      8290
      8290      8291      8290      8292      8290      8293      8293      8294
      8293      8295      8293      8296      8296      8297      8296      8298
      8296      8299      8299      8300      8299      8301      8301      8302
      8301      8303      8303      8304      8303      8305      8303      8306
      8306      8307      8306      8308      8306      8309      8309      8310
      8309      8311      8309      8312      8312      8313      8312      8314
      8312      8315      8315      8316      8315      8317      8315      8318
      8318      8319      8318      8320      8318      8321      8321      8322
      8321      8323      8321      8324      8324      8325      8324      8326
      8324      8327      8275      8276      8276      8278      8276      8277
      8278      8279      8278      8280      8278      8328      8328      8329
      8328      8330      8328      8331      8331      8332      8331      8333
      8331      8334      8334      8335      8334      8336      8334      8337
      8337      8338      8337      8339      8337      8340      8340      8341
      8340      8342      8340      8343      8343      8344      8343      8345
      8343      8346      8346      8347      8346      8348      8346      8349
      8349      8350      8349      8351      8349      8352      8352      8353
      8352      8354      8352      8355      8355      8356      8355      8357
      8355      8358      8358      8359      8358      8360      8358      8361
      8361      8362      8361      8363      8361      8364      8364      8365
      8364      8366      8364      8367      8367      8368      8367      8369
      8367      8370      8370      8371      8370      8372      8370      8373
      8373      8374      8373      8375      8373      8376      6509      6511
      6509      6510      6511      6512      6509      6555      6555      6556
      6555      6557      6555      6552      6552      6553      6552      6554
      6509      6513      6513      6514      6513      6515      6513      6516
      6516      6547      6547      6552      6547      6548      6548      6549
      6548      6550      6548      6551      6516      6517      6517      6518
      6517      6519      6519      6520      6519      6521      6519      6522
      6522      6523      6522      6545      6545      6546      6545      6547
      6522      6524      6524      6525      6524      6534      6534      6539
      6539      6540      6539      6541      6539      6542      6542      6543
      6542      6544      6542      6545      6534      6535      6535      6536
      6535      6537      6535      6538      6524      6526      6526      6527
      6526      6528      6526      6529      6529      6530      6529      6531
      6529      6532      6532      6533      6532      6534      6532      6558
      6558      6559      6558      6560      6560      6561      6560      6562
      6560      6563      6558      6564      6564      6565      6564      6566
      6564      6567      6567      6568      6567      6569      6567      6570
      6570      6571      6570      6572      6570      6573      6573      6574
      6573      6575      6575      6576      6575      6577      6575      6578
      6573      6579      6579      6580      6579      6581      6579      6582
     15372     15373     15372     15374     15372     15375     15372     15369
     15369     15370     15369     15371     15369     15366     15366     15367
     15366     15368     15366     15363     15363     15364     15363     15365
     15363     15360     15360     15361     15360     15362     15360     15357
     15357     15358     15357     15359     15357     15354     15354     15355
     15354     15356     15354     15351     15351     15352     15351     15353
     15351     15348     15348     15349     15348     15350     15348     15345
     15345     15346     15345     15347     15345     15342     15342     15343
     15342     15344     15342     15339     15339     15340     15339     15341
     15339     15336     15336     15337     15336     15338     15336     15334
     15334     15335     15332     15333     15332     15328     15328     15329
     15328     15330     15330     15331     15328     15326     15326     15327
     15326     15321     15321     15322     15321     15323     15321     15319
     15319     15316     15320     15316     15317     15316     15318     15316
     15320     15313     15313     15314     15313     15315     15313     15310
     15310     15311     15310     15312     15310     15297     15297     15306
     15297     15302     15297     15298     15306     15307     15306     15308
     15306     15309     15302     15303     15302     15304     15302     15305
     15298     15299     15298     15300     15298     15301     15326     15324
     15324     15325     15324     15376     15376     15378     15378     15379
     15378     15380     15378     15381     15381     15382     15381     15383
     15381     15384     15384     15385     15384     15386     15384     15387
     15387     15388     15387     15389     15387     15390     15390     15391
     15390     15392     15390     15393     15393     15394     15393     15395
     15393     15396     15396     15397     15396     15398     15396     15399
     15399     15400     15401     15402     15401     15403     15403     15404
     15403     15405     15403     15406     15406     15407     15406     15408
     15406     15409     15409     15410     15409     15411     15409     15412
     15412     15413     15412     15414     15412     15415     15415     15416
     15415     15417     15415     15418     15418     15419     15418     15420
     15418     15421     15421     15422     15421     15423     15421     15424
     15424     15425     15424     15426     15424     15427     15332     15334
     15399     15401     15376     15377     19358     19359     19358     19360
     19358     19361     19358     19362     19362     19363     19362     19364
     19362     19365     19365     19366     19365     19367     19365     19371
     19373     19372     19371     19368     19368     19372     19368     19369
     19368     19370     19373     19374     19373     19375     19373     19376
     19376     19377     19376     19384     19376     19378     19384     19385
     19384     19386     19384     19387     19378     19379     19379     19381
     19379     19380     19381     19382     19381     19383     19381     19393
     19393     19394     19393     19395     19393     19396     19396     19397
     19396     19398     19396     19399     19399     19400     19399     19401
     19401     19402     19401     19403     19403     19404     19403     19405
     19403     19406     19406     19407     19406     19408     19408     19409
     19408     19410     19410     19411     19410     19412     19410     19413
     19413     19414     19413     19415     19415     19416     19415     19417
     19417     19418     19417     19419     19417     19420     19420     19421
     19420     19422     19422     19423     19422     19424     19424     19425
     19424     19426     19424     19427     19427     19428     19427     19429
     19427     19430     19430     19431     19430     19432     19430     19433
     19433     19434     19433     19435     19433     19436     19436     19437
     19436     19438     19436     19439     19387     19388     19388     19390
     19388     19389     19390     19391     19390     19392     19390     19440
     19440     19441     19440     19442     19440     19443     19443     19444
     19443     19445     19443     19446     19446     19447     19446     19448
     19446     19449     19449     19450     19449     19451     19449     19452
     19452     19453     19452     19454     19452     19455     19455     19456
     19455     19457     19455     19458     19458     19459     19458     19460
     19458     19461     19461     19462     19461     19463     19461     19464
     19464     19465     19464     19466     19464     19467     19467     19468
     19467     19469     19467     19470     19470     19471     19470     19472
     19470     19473     19473     19474     19473     19475     19473     19476
     19476     19477     19476     19478     19476     19479     19479     19480
     19479     19481     19479     19482     19482     19483     19482     19484
     19482     19485     19485     19486     19485     19487     19485     19488
     15503     15504     15503     15505     15503     15506     15503     15500
     15500     15501     15500     15502     15500     15497     15497     15498
     15497     15499     15497     15494     15494     15495     15494     15496
     15494     15491     15491     15492     15491     15493     15491     15488
     15488     15489     15488     15490     15488     15485     15485     15486
     15485     15487     15485     15482     15482     15483     15482     15484
     15482     15479     15479     15480     15479     15481     15479     15476
     15476     15477     15476     15478     15476     15473     15473     15474
     15473     15475     15473     15470     15470     15471     15470     15472
     15470     15467     15467     15468     15467     15469     15467     15465
     15465     15466     15463     15464     15463     15459     15459     15460
     15459     15461     15461     15462     15459     15457     15457     15458
     15457     15452     15452     15453     15452     15454     15452     15450
     15450     15447     15451     15447     15448     15447     15449     15447
     15451     15444     15444     15445     15444     15446     15444     15441
     15441     15442     15441     15443     15441     15428     15428     15437
     15428     15433     15428     15429     15437     15438     15437     15439
     15437     15440     15433     15434     15433     15435     15433     15436
     15429     15430     15429     15431     15429     15432     15457     15455
     15455     15456     15455     15507     15507     15509     15509     15510
     15509     15511     15509     15512     15512     15513     15512     15514
     15512     15515     15515     15516     15515     15517     15515     15518
     15518     15519     15518     15520     15518     15521     15521     15522
     15521     15523     15521     15524     15524     15525     15524     15526
     15524     15527     15527     15528     15527     15529     15527     15530
     15530     15531     15532     15533     15532     15534     15534     15535
     15534     15536     15534     15537     15537     15538     15537     15539
     15537     15540     15540     15541     15540     15542     15540     15543
     15543     15544     15543     15545     15543     15546     15546     15547
     15546     15548     15546     15549     15549     15550     15549     15551
     15549     15552     15552     15553     15552     15554     15552     15555
     15555     15556     15555     15557     15555     15558     15463     15465
     15530     15532     15507     15508      6583      6585      6583      6584
      6585      6586      6583      6629      6629      6630      6629      6631
      6629      6626      6626      6627      6626      6628      6583      6587
      6587      6588      6587      6589      6587      6590      6590      6621
      6621      6626      6621      6622      6622      6623      6622      6624
      6622      6625      6590      6591      6591      6592      6591      6593
      6593      6594      6593      6595      6593      6596      6596      6597
      6596      6619      6619      6620      6619      6621      6596      6598
      6598      6599      6598      6608      6608      6613      6613      6614
      6613      6615      6613      6616      6616      6617      6616      6618
      6616      6619      6608      6609      6609      6610      6609      6611
      6609      6612      6598      6600      6600      6601      6600      6602
      6600      6603      6603      6604      6603      6605      6603      6606
      6606      6607      6606      6608      6606      6632      6632      6633
      6632      6634      6634      6635      6634      6636      6634      6637
      6632      6638      6638      6639      6638      6640      6638      6641
      6641      6642      6641      6643      6641      6644      6644      6645
      6644      6646      6644      6647      6647      6648      6647      6649
      6649      6650      6649      6651      6649      6652      6647      6653
      6653      6654      6653      6655      6653      6656     15634     15635
     15634     15636     15634     15637     15634     15631     15631     15632
     15631     15633     15631     15628     15628     15629     15628     15630
     15628     15625     15625     15626     15625     15627     15625     15622
     15622     15623     15622     15624     15622     15619     15619     15620
     15619     15621     15619     15616     15616     15617     15616     15618
     15616     15613     15613     15614     15613     15615     15613     15610
     15610     15611     15610     15612     15610     15607     15607     15608
     15607     15609     15607     15604     15604     15605     15604     15606
     15604     15601     15601     15602     15601     15603     15601     15598
     15598     15599     15598     15600     15598     15596     15596     15597
     15594     15595     15594     15590     15590     15591     15590     15592
     15592     15593     15590     15588     15588     15589     15588     15583
     15583     15584     15583     15585     15583     15581     15581     15578
     15582     15578     15579     15578     15580     15578     15582     15575
     15575     15576     15575     15577     15575     15572     15572     15573
     15572     15574     15572     15559     15559     15568     15559     15564
     15559     15560     15568     15569     15568     15570     15568     15571
     15564     15565     15564     15566     15564     15567     15560     15561
     15560     15562     15560     15563     15588     15586     15586     15587
     15586     15638     15638     15640     15640     15641     15640     15642
     15640     15643     15643     15644     15643     15645     15643     15646
     15646     15647     15646     15648     15646     15649     15649     15650
     15649     15651     15649     15652     15652     15653     15652     15654
     15652     15655     15655     15656     15655     15657     15655     15658
     15658     15659     15658     15660     15658     15661     15661     15662
     15663     15664     15663     15665     15665     15666     15665     15667
     15665     15668     15668     15669     15668     15670     15668     15671
     15671     15672     15671     15673     15671     15674     15674     15675
     15674     15676     15674     15677     15677     15678     15677     15679
     15677     15680     15680     15681     15680     15682     15680     15683
     15683     15684     15683     15685     15683     15686     15686     15687
     15686     15688     15686     15689     15594     15596     15661     15663
     15638     15639     15765     15766     15765     15767     15765     15768
     15765     15762     15762     15763     15762     15764     15762     15759
     15759     15760     15759     15761     15759     15756     15756     15757
     15756     15758     15756     15753     15753     15754     15753     15755
     15753     15750     15750     15751     15750     15752     15750     15747
     15747     15748     15747     15749     15747     15744     15744     15745
     15744     15746     15744     15741     15741     15742     15741     15743
     15741     15738     15738     15739     15738     15740     15738     15735
     15735     15736     15735     15737     15735     15732     15732     15733
     15732     15734     15732     15729     15729     15730     15729     15731
     15729     15727     15727     15728     15725     15726     15725     15721
     15721     15722     15721     15723     15723     15724     15721     15719
     15719     15720     15719     15714     15714     15715     15714     15716
     15714     15712     15712     15709     15713     15709     15710     15709
     15711     15709     15713     15706     15706     15707     15706     15708
     15706     15703     15703     15704     15703     15705     15703     15690
     15690     15699     15690     15695     15690     15691     15699     15700
     15699     15701     15699     15702     15695     15696     15695     15697
     15695     15698     15691     15692     15691     15693     15691     15694
     15719     15717     15717     15718     15717     15769     15769     15771
     15771     15772     15771     15773     15771     15774     15774     15775
     15774     15776     15774     15777     15777     15778     15777     15779
     15777     15780     15780     15781     15780     15782     15780     15783
     15783     15784     15783     15785     15783     15786     15786     15787
     15786     15788     15786     15789     15789     15790     15789     15791
     15789     15792     15792     15793     15794     15795     15794     15796
     15796     15797     15796     15798     15796     15799     15799     15800
     15799     15801     15799     15802     15802     15803     15802     15804
     15802     15805     15805     15806     15805     15807     15805     15808
     15808     15809     15808     15810     15808     15811     15811     15812
     15811     15813     15811     15814     15814     15815     15814     15816
     15814     15817     15817     15818     15817     15819     15817     15820
     15725     15727     15792     15794     15769     15770      6657      6659
      6657      6658      6659      6660      6657      6703      6703      6704
      6703      6705      6703      6700      6700      6701      6700      6702
      6657      6661      6661      6662      6661      6663      6661      6664
      6664      6695      6695      6700      6695      6696      6696      6697
      6696      6698      6696      6699      6664      6665      6665      6666
      6665      6667      6667      6668      6667      6669      6667      6670
      6670      6671      6670      6693      6693      6694      6693      6695
      6670      6672      6672      6673      6672      6682      6682      6687
      6687      6688      6687      6689      6687      6690      6690      6691
      6690      6692      6690      6693      6682      6683      6683      6684
      6683      6685      6683      6686      6672      6674      6674      6675
      6674      6676      6674      6677      6677      6678      6677      6679
      6677      6680      6680      6681      6680      6682      6680      6706
      6706      6707      6706      6708      6708      6709      6708      6710
      6708      6711      6706      6712      6712      6713      6712      6714
      6712      6715      6715      6716      6715      6717      6715      6718
      6718      6719      6718      6720      6718      6721      6721      6722
      6721      6723      6723      6724      6723      6725      6723      6726
      6721      6727      6727      6728      6727      6729      6727      6730
      9917      9921      9917      9925      9917      9929      9921      9922
      9921      9923      9921      9924      9925      9926      9925      9927
      9925      9928      9929      9930      9929      9931      9929      9932
      9917      9918      9918      9919      9918      9920      9918      9933
      9933      9934      9933      9935      9933      9939      9940      9941
      9939      9936      9936      9940      9936      9937      9936      9938
      9941      9942      9941      9943      9941      9944      9944      9945
      9944      9952      9944      9946      9952      9953      9952      9954
      9952      9955      9946      9947      9947      9949      9947      9948
      9949      9950      9949      9951      9949      9961      9961      9962
      9961      9963      9961      9964      9964      9965      9964      9966
      9964      9967      9967      9968      9967      9969      9969      9970
      9969      9971      9971      9972      9971      9973      9971      9974
      9974      9975      9974      9976      9976      9977      9976      9978
      9978      9979      9978      9980      9978      9981      9981      9982
      9981      9983      9983      9984      9983      9985      9985      9986
      9985      9987      9985      9988      9988      9989      9988      9990
      9990      9991      9990      9992      9992      9993      9992      9994
      9992      9995      9995      9996      9995      9997      9995      9998
      9998      9999      9998     10000      9998     10001     10001     10002
     10001     10003     10001     10004     10004     10005     10004     10006
     10004     10007      9955      9956      9956      9958      9956      9957
      9958      9959      9958      9960      9958     10008     10008     10009
     10008     10010     10008     10011     10011     10012     10011     10013
     10011     10014     10014     10015     10014     10016     10014     10017
     10017     10018     10017     10019     10017     10020     10020     10021
     10020     10022     10020     10023     10023     10024     10023     10025
     10023     10026     10026     10027     10026     10028     10026     10029
     10029     10030     10029     10031     10029     10032     10032     10033
     10032     10034     10032     10035     10035     10036     10035     10037
     10035     10038     10038     10039     10038     10040     10038     10041
     10041     10042     10041     10043     10041     10044     10044     10045
     10044     10046     10044     10047     10047     10048     10047     10049
     10047     10050     10050     10051     10050     10052     10050     10053
     10053     10054     10053     10055     10053     10056      6731      6733
      6731      6732      6733      6734      6731      6777      6777      6778
      6777      6779      6777      6774      6774      6775      6774      6776
      6731      6735      6735      6736      6735      6737      6735      6738
      6738      6769      6769      6774      6769      6770      6770      6771
      6770      6772      6770      6773      6738      6739      6739      6740
      6739      6741      6741      6742      6741      6743      6741      6744
      6744      6745      6744      6767      6767      6768      6767      6769
      6744      6746      6746      6747      6746      6756      6756      6761
      6761      6762      6761      6763      6761      6764      6764      6765
      6764      6766      6764      6767      6756      6757      6757      6758
      6757      6759      6757      6760      6746      6748      6748      6749
      6748      6750      6748      6751      6751      6752      6751      6753
      6751      6754      6754      6755      6754      6756      6754      6780
      6780      6781      6780      6782      6782      6783      6782      6784
      6782      6785      6780      6786      6786      6787      6786      6788
      6786      6789      6789      6790      6789      6791      6789      6792
      6792      6793      6792      6794      6792      6795      6795      6796
      6795      6797      6797      6798      6797      6799      6797      6800
      6795      6801      6801      6802      6801      6803      6801      6804
     22311     22312     22311     22313     22312     22313     22314     22315
     22314     22316     22315     22316     22317     22318     22317     22319
     22318     22319     22320     22321     22320     22322     22321     22322
     22323     22324     22323     22325     22324     22325     22326     22327
     22326     22328     22327     22328     22329     22330     22329     22331
     22330     22331     22332     22333     22332     22334     22333     22334
     22335     22336     22335     22337     22336     22337     22338     22339
     22338     22340     22339     22340     22341     22342     22341     22343
     22342     22343     22344     22345     22344     22346     22345     22346
     22347     22348     22347     22349     22348     22349     22350     22351
     22350     22352     22351     22352     22353     22354     22353     22355
     22354     22355     22356     22357     22356     22358     22357     22358
     22359     22360     22359     22361     22360     22361     22362     22363
     22362     22364     22363     22364     22365     22366     22365     22367
     22366     22367     22368     22369     22368     22370     22369     22370
     22371     22372     22371     22373     22372     22373     22374     22375
     22374     22376     22375     22376     22377     22378     22377     22379
     22378     22379     22380     22381     22380     22382     22381     22382
     22383     22384     22383     22385     22384     22385     22386     22387
     22386     22388     22387     22388     22389     22390     22389     22391
     22390     22391     22392     22393     22392     22394     22393     22394
     22395     22396     22395     22397     22396     22397     22398     22399
     22398     22400     22399     22400     22401     22402     22401     22403
     22402     22403     22404     22405     22404     22406     22405     22406
     22407     22408     22407     22409     22408     22409     22410     22411
     22410     22412     22411     22412     22413     22414     22413     22415
     22414     22415     22416     22417     22416     22418     22417     22418
     22419     22420     22419     22421     22420     22421     22422     22423
     22422     22424     22423     22424     22425     22426     22425     22427
     22426     22427     22428     22429     22428     22430     22429     22430
     22431     22432     22431     22433     22432     22433     22434     22435
     22434     22436     22435     22436     22437     22438     22437     22439
     22438     22439     22440     22441     22440     22442     22441     22442
     22443     22444     22443     22445     22444     22445     22446     22447
     22446     22448     22447     22448     22449     22450     22449     22451
     22450     22451     22452     22453     22452     22454     22453     22454
     22455     22456     22455     22457     22456     22457     22458     22459
     22458     22460     22459     22460     22461     22462     22461     22463
     22462     22463     22464     22465     22464     22466     22465     22466
     22467     22468     22467     22469     22468     22469     22470     22471
     22470     22472     22471     22472     22473     22474     22473     22475
     22474     22475     22476     22477     22476     22478     22477     22478
     22479     22480     22479     22481     22480     22481     22482     22483
     22482     22484     22483     22484     22485     22486     22485     22487
     22486     22487     22488     22489     22488     22490     22489     22490
     22491     22492     22491     22493     22492     22493     22494     22495
     22494     22496     22495     22496     22497     22498     22497     22499
     22498     22499     22500     22501     22500     22502     22501     22502
     22503     22504     22503     22505     22504     22505     22506     22507
     22506     22508     22507     22508     22509     22510     22509     22511
     22510     22511     22512     22513     22512     22514     22513     22514
     22515     22516     22515     22517     22516     22517     22518     22519
     22518     22520     22519     22520     22521     22522     22521     22523
     22522     22523     22524     22525     22524     22526     22525     22526
     22527     22528     22527     22529     22528     22529     22530     22531
     22530     22532     22531     22532     22533     22534     22533     22535
     22534     22535     22536     22537     22536     22538     22537     22538
     22539     22540     22539     22541     22540     22541     22542     22543
     22542     22544     22543     22544     22545     22546     22545     22547
     22546     22547     22548     22549     22548     22550     22549     22550
     22551     22552     22551     22553     22552     22553     22554     22555
     22554     22556     22555     22556     22557     22558     22557     22559
     22558     22559     22560     22561     22560     22562     22561     22562
     22563     22564     22563     22565     22564     22565     22566     22567
     22566     22568     22567     22568     22569     22570     22569     22571
     22570     22571     22572     22573     22572     22574     22573     22574
     22575     22576     22575     22577     22576     22577     22578     22579
     22578     22580     22579     22580     22581     22582     22581     22583
     22582     22583     22584     22585     22584     22586     22585     22586
     22587     22588     22587     22589     22588     22589     22590     22591
     22590     22592     22591     22592     22593     22594     22593     22595
     22594     22595     22596     22597     22596     22598     22597     22598
     22599     22600     22599     22601     22600     22601     22602     22603
     22602     22604     22603     22604     22605     22606     22605     22607
     22606     22607     22608     22609     22608     22610     22609     22610
     22611     22612     22611     22613     22612     22613     22614     22615
     22614     22616     22615     22616     22617     22618     22617     22619
     22618     22619     22620     22621     22620     22622     22621     22622
     22623     22624     22623     22625     22624     22625     22626     22627
     22626     22628     22627     22628     22629     22630     22629     22631
     22630     22631     22632     22633     22632     22634     22633     22634
     22635     22636     22635     22637     22636     22637     22638     22639
     22638     22640     22639     22640     22641     22642     22641     22643
     22642     22643     22644     22645     22644     22646     22645     22646
     22647     22648     22647     22649     22648     22649     22650     22651
     22650     22652     22651     22652     22653     22654     22653     22655
     22654     22655     22656     22657     22656     22658     22657     22658
     22659     22660     22659     22661     22660     22661     22662     22663
     22662     22664     22663     22664     22665     22666     22665     22667
     22666     22667     22668     22669     22668     22670     22669     22670
     22671     22672     22671     22673     22672     22673     22674     22675
     22674     22676     22675     22676     22677     22678     22677     22679
     22678     22679     22680     22681     22680     22682     22681     22682
     22683     22684     22683     22685     22684     22685     22686     22687
     22686     22688     22687     22688     22689     22690     22689     22691
     22690     22691     22692     22693     22692     22694     22693     22694
     22695     22696     22695     22697     22696     22697     22698     22699
     22698     22700     22699     22700     22701     22702     22701     22703
     22702     22703     22704     22705     22704     22706     22705     22706
     22707     22708     22707     22709     22708     22709     22710     22711
     22710     22712     22711     22712     22713     22714     22713     22715
     22714     22715     22716     22717     22716     22718     22717     22718
     22719     22720     22719     22721     22720     22721     22722     22723
     22722     22724     22723     22724     22725     22726     22725     22727
     22726     22727     22728     22729     22728     22730     22729     22730
     22731     22732     22731     22733     22732     22733     22734     22735
     22734     22736     22735     22736     22737     22738     22737     22739
     22738     22739     22740     22741     22740     22742     22741     22742
     22743     22744     22743     22745     22744     22745     22746     22747
     22746     22748     22747     22748     22749     22750     22749     22751
     22750     22751     22752     22753     22752     22754     22753     22754
     22755     22756     22755     22757     22756     22757     22758     22759
     22758     22760     22759     22760     22761     22762     22761     22763
     22762     22763     22764     22765     22764     22766     22765     22766
     22767     22768     22767     22769     22768     22769     22770     22771
     22770     22772     22771     22772     22773     22774     22773     22775
     22774     22775     22776     22777     22776     22778     22777     22778
     22779     22780     22779     22781     22780     22781     22782     22783
     22782     22784     22783     22784     22785     22786     22785     22787
     22786     22787     22788     22789     22788     22790     22789     22790
     22791     22792     22791     22793     22792     22793     22794     22795
     22794     22796     22795     22796     22797     22798     22797     22799
     22798     22799     22800     22801     22800     22802     22801     22802
     22803     22804     22803     22805     22804     22805     22806     22807
     22806     22808     22807     22808     22809     22810     22809     22811
     22810     22811     22812     22813     22812     22814     22813     22814
     22815     22816     22815     22817     22816     22817     22818     22819
     22818     22820     22819     22820     22821     22822     22821     22823
     22822     22823     22824     22825     22824     22826     22825     22826
     22827     22828     22827     22829     22828     22829     22830     22831
     22830     22832     22831     22832     22833     22834     22833     22835
     22834     22835     22836     22837     22836     22838     22837     22838
     22839     22840     22839     22841     22840     22841     22842     22843
     22842     22844     22843     22844     22845     22846     22845     22847
     22846     22847     22848     22849     22848     22850     22849     22850
     22851     22852     22851     22853     22852     22853     22854     22855
     22854     22856     22855     22856     22857     22858     22857     22859
     22858     22859     22860     22861     22860     22862     22861     22862
     22863     22864     22863     22865     22864     22865     22866     22867
     22866     22868     22867     22868     22869     22870     22869     22871
     22870     22871     22872     22873     22872     22874     22873     22874
     22875     22876     22875     22877     22876     22877     22878     22879
     22878     22880     22879     22880     22881     22882     22881     22883
     22882     22883     22884     22885     22884     22886     22885     22886
     22887     22888     22887     22889     22888     22889     22890     22891
     22890     22892     22891     22892     22893     22894     22893     22895
     22894     22895     22896     22897     22896     22898     22897     22898
     22899     22900     22899     22901     22900     22901     22902     22903
     22902     22904     22903     22904     22905     22906     22905     22907
     22906     22907     22908     22909     22908     22910     22909     22910
     22911     22912     22911     22913     22912     22913     22914     22915
     22914     22916     22915     22916     22917     22918     22917     22919
     22918     22919     22920     22921     22920     22922     22921     22922
     22923     22924     22923     22925     22924     22925     22926     22927
     22926     22928     22927     22928     22929     22930     22929     22931
     22930     22931     22932     22933     22932     22934     22933     22934
     22935     22936     22935     22937     22936     22937     22938     22939
     22938     22940     22939     22940     22941     22942     22941     22943
     22942     22943     22944     22945     22944     22946     22945     22946
     22947     22948     22947     22949     22948     22949     22950     22951
     22950     22952     22951     22952     22953     22954     22953     22955
     22954     22955     22956     22957     22956     22958     22957     22958
     22959     22960     22959     22961     22960     22961     22962     22963
     22962     22964     22963     22964     22965     22966     22965     22967
     22966     22967     22968     22969     22968     22970     22969     22970
     22971     22972     22971     22973     22972     22973     22974     22975
     22974     22976     22975     22976     22977     22978     22977     22979
     22978     22979     22980     22981     22980     22982     22981     22982
     22983     22984     22983     22985     22984     22985     22986     22987
     22986     22988     22987     22988     22989     22990     22989     22991
     22990     22991     22992     22993     22992     22994     22993     22994
     22995     22996     22995     22997     22996     22997     22998     22999
     22998     23000     22999     23000     23001     23002     23001     23003
     23002     23003     23004     23005     23004     23006     23005     23006
     23007     23008     23007     23009     23008     23009     23010     23011
     23010     23012     23011     23012     23013     23014     23013     23015
     23014     23015     23016     23017     23016     23018     23017     23018
     23019     23020     23019     23021     23020     23021     23022     23023
     23022     23024     23023     23024     23025     23026     23025     23027
     23026     23027     23028     23029     23028     23030     23029     23030
     23031     23032     23031     23033     23032     23033     23034     23035
     23034     23036     23035     23036     23037     23038     23037     23039
     23038     23039     23040     23041     23040     23042     23041     23042
     23043     23044     23043     23045     23044     23045     23046     23047
     23046     23048     23047     23048     23049     23050     23049     23051
     23050     23051     23052     23053     23052     23054     23053     23054
     23055     23056     23055     23057     23056     23057     23058     23059
     23058     23060     23059     23060     23061     23062     23061     23063
     23062     23063     23064     23065     23064     23066     23065     23066
     23067     23068     23067     23069     23068     23069     23070     23071
     23070     23072     23071     23072     23073     23074     23073     23075
     23074     23075     23076     23077     23076     23078     23077     23078
     23079     23080     23079     23081     23080     23081     23082     23083
     23082     23084     23083     23084     23085     23086     23085     23087
     23086     23087     23088     23089     23088     23090     23089     23090
     23091     23092     23091     23093     23092     23093     23094     23095
     23094     23096     23095     23096     23097     23098     23097     23099
     23098     23099     23100     23101     23100     23102     23101     23102
     23103     23104     23103     23105     23104     23105     23106     23107
     23106     23108     23107     23108     23109     23110     23109     23111
     23110     23111     23112     23113     23112     23114     23113     23114
     23115     23116     23115     23117     23116     23117     23118     23119
     23118     23120     23119     23120     23121     23122     23121     23123
     23122     23123     23124     23125     23124     23126     23125     23126
     23127     23128     23127     23129     23128     23129     23130     23131
     23130     23132     23131     23132     23133     23134     23133     23135
     23134     23135     23136     23137     23136     23138     23137     23138
     23139     23140     23139     23141     23140     23141     23142     23143
     23142     23144     23143     23144     23145     23146     23145     23147
     23146     23147     23148     23149     23148     23150     23149     23150
     23151     23152     23151     23153     23152     23153     23154     23155
     23154     23156     23155     23156     23157     23158     23157     23159
     23158     23159     23160     23161     23160     23162     23161     23162
     23163     23164     23163     23165     23164     23165     23166     23167
     23166     23168     23167     23168     23169     23170     23169     23171
     23170     23171     23172     23173     23172     23174     23173     23174
     23175     23176     23175     23177     23176     23177     23178     23179
     23178     23180     23179     23180     23181     23182     23181     23183
     23182     23183     23184     23185     23184     23186     23185     23186
     23187     23188     23187     23189     23188     23189     23190     23191
     23190     23192     23191     23192     23193     23194     23193     23195
     23194     23195     23196     23197     23196     23198     23197     23198
     23199     23200     23199     23201     23200     23201     23202     23203
     23202     23204     23203     23204     23205     23206     23205     23207
     23206     23207     23208     23209     23208     23210     23209     23210
     23211     23212     23211     23213     23212     23213     23214     23215
     23214     23216     23215     23216     23217     23218     23217     23219
     23218     23219     23220     23221     23220     23222     23221     23222
     23223     23224     23223     23225     23224     23225     23226     23227
     23226     23228     23227     23228     23229     23230     23229     23231
     23230     23231     23232     23233     23232     23234     23233     23234
     23235     23236     23235     23237     23236     23237     23238     23239
     23238     23240     23239     23240     23241     23242     23241     23243
     23242     23243     23244     23245     23244     23246     23245     23246
     23247     23248     23247     23249     23248     23249     23250     23251
     23250     23252     23251     23252     23253     23254     23253     23255
     23254     23255     23256     23257     23256     23258     23257     23258
     23259     23260     23259     23261     23260     23261     23262     23263
     23262     23264     23263     23264     23265     23266     23265     23267
     23266     23267     23268     23269     23268     23270     23269     23270
     23271     23272     23271     23273     23272     23273     23274     23275
     23274     23276     23275     23276     23277     23278     23277     23279
     23278     23279     23280     23281     23280     23282     23281     23282
     23283     23284     23283     23285     23284     23285     23286     23287
     23286     23288     23287     23288     23289     23290     23289     23291
     23290     23291     23292     23293     23292     23294     23293     23294
     23295     23296     23295     23297     23296     23297     23298     23299
     23298     23300     23299     23300     23301     23302     23301     23303
     23302     23303     23304     23305     23304     23306     23305     23306
     23307     23308     23307     23309     23308     23309     23310     23311
     23310     23312     23311     23312     23313     23314     23313     23315
     23314     23315     23316     23317     23316     23318     23317     23318
     23319     23320     23319     23321     23320     23321     23322     23323
     23322     23324     23323     23324     23325     23326     23325     23327
     23326     23327     23328     23329     23328     23330     23329     23330
     23331     23332     23331     23333     23332     23333     23334     23335
     23334     23336     23335     23336     23337     23338     23337     23339
     23338     23339     23340     23341     23340     23342     23341     23342
     23343     23344     23343     23345     23344     23345     23346     23347
     23346     23348     23347     23348     23349     23350     23349     23351
     23350     23351     23352     23353     23352     23354     23353     23354
     23355     23356     23355     23357     23356     23357     23358     23359
     23358     23360     23359     23360     23361     23362     23361     23363
     23362     23363     23364     23365     23364     23366     23365     23366
     23367     23368     23367     23369     23368     23369     23370     23371
     23370     23372     23371     23372     23373     23374     23373     23375
     23374     23375     23376     23377     23376     23378     23377     23378
     23379     23380     23379     23381     23380     23381     23382     23383
     23382     23384     23383     23384     23385     23386     23385     23387
     23386     23387     23388     23389     23388     23390     23389     23390
     23391     23392     23391     23393     23392     23393     23394     23395
     23394     23396     23395     23396     23397     23398     23397     23399
     23398     23399     23400     23401     23400     23402     23401     23402
     23403     23404     23403     23405     23404     23405     23406     23407
     23406     23408     23407     23408     23409     23410     23409     23411
     23410     23411     23412     23413     23412     23414     23413     23414
     23415     23416     23415     23417     23416     23417     23418     23419
     23418     23420     23419     23420     23421     23422     23421     23423
     23422     23423     23424     23425     23424     23426     23425     23426
     23427     23428     23427     23429     23428     23429     23430     23431
     23430     23432     23431     23432     23433     23434     23433     23435
     23434     23435     23436     23437     23436     23438     23437     23438
     23439     23440     23439     23441     23440     23441     23442     23443
     23442     23444     23443     23444     23445     23446     23445     23447
     23446     23447     23448     23449     23448     23450     23449     23450
     23451     23452     23451     23453     23452     23453     23454     23455
     23454     23456     23455     23456     23457     23458     23457     23459
     23458     23459     23460     23461     23460     23462     23461     23462
     23463     23464     23463     23465     23464     23465     23466     23467
     23466     23468     23467     23468     23469     23470     23469     23471
     23470     23471     23472     23473     23472     23474     23473     23474
     23475     23476     23475     23477     23476     23477     23478     23479
     23478     23480     23479     23480     23481     23482     23481     23483
     23482     23483     23484     23485     23484     23486     23485     23486
     23487     23488     23487     23489     23488     23489     23490     23491
     23490     23492     23491     23492     23493     23494     23493     23495
     23494     23495     23496     23497     23496     23498     23497     23498
     23499     23500     23499     23501     23500     23501     23502     23503
     23502     23504     23503     23504     23505     23506     23505     23507
     23506     23507     23508     23509     23508     23510     23509     23510
     23511     23512     23511     23513     23512     23513     23514     23515
     23514     23516     23515     23516     23517     23518     23517     23519
     23518     23519     23520     23521     23520     23522     23521     23522
     23523     23524     23523     23525     23524     23525     23526     23527
     23526     23528     23527     23528     23529     23530     23529     23531
     23530     23531     23532     23533     23532     23534     23533     23534
     23535     23536     23535     23537     23536     23537     23538     23539
     23538     23540     23539     23540     23541     23542     23541     23543
     23542     23543     23544     23545     23544     23546     23545     23546
     23547     23548     23547     23549     23548     23549     23550     23551
     23550     23552     23551     23552     23553     23554     23553     23555
     23554     23555     23556     23557     23556     23558     23557     23558
     23559     23560     23559     23561     23560     23561     23562     23563
     23562     23564     23563     23564     23565     23566     23565     23567
     23566     23567     23568     23569     23568     23570     23569     23570
     23571     23572     23571     23573     23572     23573     23574     23575
     23574     23576     23575     23576     23577     23578     23577     23579
     23578     23579     23580     23581     23580     23582     23581     23582
     23583     23584     23583     23585     23584     23585     23586     23587
     23586     23588     23587     23588     23589     23590     23589     23591
     23590     23591     23592     23593     23592     23594     23593     23594
     23595     23596     23595     23597     23596     23597     23598     23599
     23598     23600     23599     23600     23601     23602     23601     23603
     23602     23603     23604     23605     23604     23606     23605     23606
     23607     23608     23607     23609     23608     23609     23610     23611
     23610     23612     23611     23612     23613     23614     23613     23615
     23614     23615     23616     23617     23616     23618     23617     23618
     23619     23620     23619     23621     23620     23621     23622     23623
     23622     23624     23623     23624     23625     23626     23625     23627
     23626     23627     23628     23629     23628     23630     23629     23630
     23631     23632     23631     23633     23632     23633     23634     23635
     23634     23636     23635     23636     23637     23638     23637     23639
     23638     23639     23640     23641     23640     23642     23641     23642
     23643     23644     23643     23645     23644     23645     23646     23647
     23646     23648     23647     23648     23649     23650     23649     23651
     23650     23651     23652     23653     23652     23654     23653     23654
     23655     23656     23655     23657     23656     23657     23658     23659
     23658     23660     23659     23660     23661     23662     23661     23663
     23662     23663     23664     23665     23664     23666     23665     23666
     23667     23668     23667     23669     23668     23669     23670     23671
     23670     23672     23671     23672     23673     23674     23673     23675
     23674     23675     23676     23677     23676     23678     23677     23678
     23679     23680     23679     23681     23680     23681     23682     23683
     23682     23684     23683     23684     23685     23686     23685     23687
     23686     23687     23688     23689     23688     23690     23689     23690
     23691     23692     23691     23693     23692     23693     23694     23695
     23694     23696     23695     23696     23697     23698     23697     23699
     23698     23699     23700     23701     23700     23702     23701     23702
     23703     23704     23703     23705     23704     23705     23706     23707
     23706     23708     23707     23708     23709     23710     23709     23711
     23710     23711     23712     23713     23712     23714     23713     23714
     23715     23716     23715     23717     23716     23717     23718     23719
     23718     23720     23719     23720     23721     23722     23721     23723
     23722     23723     23724     23725     23724     23726     23725     23726
     23727     23728     23727     23729     23728     23729     23730     23731
     23730     23732     23731     23732     23733     23734     23733     23735
     23734     23735     23736     23737     23736     23738     23737     23738
     23739     23740     23739     23741     23740     23741     23742     23743
     23742     23744     23743     23744     23745     23746     23745     23747
     23746     23747     23748     23749     23748     23750     23749     23750
     23751     23752     23751     23753     23752     23753     23754     23755
     23754     23756     23755     23756     23757     23758     23757     23759
     23758     23759     23760     23761     23760     23762     23761     23762
     23763     23764     23763     23765     23764     23765     23766     23767
     23766     23768     23767     23768     23769     23770     23769     23771
     23770     23771     23772     23773     23772     23774     23773     23774
     23775     23776     23775     23777     23776     23777     23778     23779
     23778     23780     23779     23780     23781     23782     23781     23783
     23782     23783     23784     23785     23784     23786     23785     23786
     23787     23788     23787     23789     23788     23789     23790     23791
     23790     23792     23791     23792     23793     23794     23793     23795
     23794     23795     23796     23797     23796     23798     23797     23798
     23799     23800     23799     23801     23800     23801     23802     23803
     23802     23804     23803     23804     23805     23806     23805     23807
     23806     23807     23808     23809     23808     23810     23809     23810
     23811     23812     23811     23813     23812     23813     23814     23815
     23814     23816     23815     23816     23817     23818     23817     23819
     23818     23819     23820     23821     23820     23822     23821     23822
     23823     23824     23823     23825     23824     23825     23826     23827
     23826     23828     23827     23828     23829     23830     23829     23831
     23830     23831     23832     23833     23832     23834     23833     23834
     23835     23836     23835     23837     23836     23837     23838     23839
     23838     23840     23839     23840     23841     23842     23841     23843
     23842     23843     23844     23845     23844     23846     23845     23846
     23847     23848     23847     23849     23848     23849     23850     23851
     23850     23852     23851     23852     23853     23854     23853     23855
     23854     23855     23856     23857     23856     23858     23857     23858
     23859     23860     23859     23861     23860     23861     23862     23863
     23862     23864     23863     23864     23865     23866     23865     23867
     23866     23867     23868     23869     23868     23870     23869     23870
     23871     23872     23871     23873     23872     23873     23874     23875
     23874     23876     23875     23876     23877     23878     23877     23879
     23878     23879     23880     23881     23880     23882     23881     23882
     23883     23884     23883     23885     23884     23885     23886     23887
     23886     23888     23887     23888     23889     23890     23889     23891
     23890     23891     23892     23893     23892     23894     23893     23894
     23895     23896     23895     23897     23896     23897     23898     23899
     23898     23900     23899     23900     23901     23902     23901     23903
     23902     23903     23904     23905     23904     23906     23905     23906
     23907     23908     23907     23909     23908     23909     23910     23911
     23910     23912     23911     23912     23913     23914     23913     23915
     23914     23915     23916     23917     23916     23918     23917     23918
     23919     23920     23919     23921     23920     23921     23922     23923
     23922     23924     23923     23924     23925     23926     23925     23927
     23926     23927     23928     23929     23928     23930     23929     23930
     23931     23932     23931     23933     23932     23933     23934     23935
     23934     23936     23935     23936     23937     23938     23937     23939
     23938     23939     23940     23941     23940     23942     23941     23942
     23943     23944     23943     23945     23944     23945     23946     23947
     23946     23948     23947     23948     23949     23950     23949     23951
     23950     23951     23952     23953     23952     23954     23953     23954
     23955     23956     23955     23957     23956     23957     23958     23959
     23958     23960     23959     23960     23961     23962     23961     23963
     23962     23963     23964     23965     23964     23966     23965     23966
     23967     23968     23967     23969     23968     23969     23970     23971
     23970     23972     23971     23972     23973     23974     23973     23975
     23974     23975     23976     23977     23976     23978     23977     23978
     23979     23980     23979     23981     23980     23981     23982     23983
     23982     23984     23983     23984     23985     23986     23985     23987
     23986     23987     23988     23989     23988     23990     23989     23990
     23991     23992     23991     23993     23992     23993     23994     23995
     23994     23996     23995     23996     23997     23998     23997     23999
     23998     23999     24000     24001     24000     24002     24001     24002
     24003     24004     24003     24005     24004     24005     24006     24007
     24006     24008     24007     24008     24009     24010     24009     24011
     24010     24011     24012     24013     24012     24014     24013     24014
     24015     24016     24015     24017     24016     24017     24018     24019
     24018     24020     24019     24020     24021     24022     24021     24023
     24022     24023     24024     24025     24024     24026     24025     24026
     24027     24028     24027     24029     24028     24029     24030     24031
     24030     24032     24031     24032     24033     24034     24033     24035
     24034     24035     24036     24037     24036     24038     24037     24038
     24039     24040     24039     24041     24040     24041     24042     24043
     24042     24044     24043     24044     24045     24046     24045     24047
     24046     24047     24048     24049     24048     24050     24049     24050
     24051     24052     24051     24053     24052     24053     24054     24055
     24054     24056     24055     24056     24057     24058     24057     24059
     24058     24059     24060     24061     24060     24062     24061     24062
     24063     24064     24063     24065     24064     24065     24066     24067
     24066     24068     24067     24068     24069     24070     24069     24071
     24070     24071     24072     24073     24072     24074     24073     24074
     24075     24076     24075     24077     24076     24077     24078     24079
     24078     24080     24079     24080     24081     24082     24081     24083
     24082     24083     24084     24085     24084     24086     24085     24086
     24087     24088     24087     24089     24088     24089     24090     24091
     24090     24092     24091     24092     24093     24094     24093     24095
     24094     24095     24096     24097     24096     24098     24097     24098
     24099     24100     24099     24101     24100     24101     24102     24103
     24102     24104     24103     24104     24105     24106     24105     24107
     24106     24107     24108     24109     24108     24110     24109     24110
     24111     24112     24111     24113     24112     24113     24114     24115
     24114     24116     24115     24116     24117     24118     24117     24119
     24118     24119     24120     24121     24120     24122     24121     24122
     24123     24124     24123     24125     24124     24125     24126     24127
     24126     24128     24127     24128     24129     24130     24129     24131
     24130     24131     24132     24133     24132     24134     24133     24134
     24135     24136     24135     24137     24136     24137     24138     24139
     24138     24140     24139     24140     24141     24142     24141     24143
     24142     24143     24144     24145     24144     24146     24145     24146
     24147     24148     24147     24149     24148     24149     24150     24151
     24150     24152     24151     24152     24153     24154     24153     24155
     24154     24155     24156     24157     24156     24158     24157     24158
     24159     24160     24159     24161     24160     24161     24162     24163
     24162     24164     24163     24164     24165     24166     24165     24167
     24166     24167     24168     24169     24168     24170     24169     24170
     24171     24172     24171     24173     24172     24173     24174     24175
     24174     24176     24175     24176     24177     24178     24177     24179
     24178     24179     24180     24181     24180     24182     24181     24182
     24183     24184     24183     24185     24184     24185     24186     24187
     24186     24188     24187     24188     24189     24190     24189     24191
     24190     24191     24192     24193     24192     24194     24193     24194
     24195     24196     24195     24197     24196     24197     24198     24199
     24198     24200     24199     24200     24201     24202     24201     24203
     24202     24203     24204     24205     24204     24206     24205     24206
     24207     24208     24207     24209     24208     24209     24210     24211
     24210     24212     24211     24212     24213     24214     24213     24215
     24214     24215     24216     24217     24216     24218     24217     24218
     24219     24220     24219     24221     24220     24221     24222     24223
     24222     24224     24223     24224     24225     24226     24225     24227
     24226     24227     24228     24229     24228     24230     24229     24230
     24231     24232     24231     24233     24232     24233     24234     24235
     24234     24236     24235     24236     24237     24238     24237     24239
     24238     24239     24240     24241     24240     24242     24241     24242
     24243     24244     24243     24245     24244     24245     24246     24247
     24246     24248     24247     24248     24249     24250     24249     24251
     24250     24251     24252     24253     24252     24254     24253     24254
     24255     24256     24255     24257     24256     24257     24258     24259
     24258     24260     24259     24260     24261     24262     24261     24263
     24262     24263     24264     24265     24264     24266     24265     24266
     24267     24268     24267     24269     24268     24269     24270     24271
     24270     24272     24271     24272     24273     24274     24273     24275
     24274     24275     24276     24277     24276     24278     24277     24278
     24279     24280     24279     24281     24280     24281     24282     24283
     24282     24284     24283     24284     24285     24286     24285     24287
     24286     24287     24288     24289     24288     24290     24289     24290
     24291     24292     24291     24293     24292     24293     24294     24295
     24294     24296     24295     24296     24297     24298     24297     24299
     24298     24299     24300     24301     24300     24302     24301     24302
     24303     24304     24303     24305     24304     24305     24306     24307
     24306     24308     24307     24308     24309     24310     24309     24311
     24310     24311     24312     24313     24312     24314     24313     24314
     24315     24316     24315     24317     24316     24317     24318     24319
     24318     24320     24319     24320     24321     24322     24321     24323
     24322     24323     24324     24325     24324     24326     24325     24326
     24327     24328     24327     24329     24328     24329     24330     24331
     24330     24332     24331     24332     24333     24334     24333     24335
     24334     24335     24336     24337     24336     24338     24337     24338
     24339     24340     24339     24341     24340     24341     24342     24343
     24342     24344     24343     24344     24345     24346     24345     24347
     24346     24347     24348     24349     24348     24350     24349     24350
     24351     24352     24351     24353     24352     24353     24354     24355
     24354     24356     24355     24356     24357     24358     24357     24359
     24358     24359     24360     24361     24360     24362     24361     24362
     24363     24364     24363     24365     24364     24365     24366     24367
     24366     24368     24367     24368     24369     24370     24369     24371
     24370     24371     24372     24373     24372     24374     24373     24374
     24375     24376     24375     24377     24376     24377     24378     24379
     24378     24380     24379     24380     24381     24382     24381     24383
     24382     24383     24384     24385     24384     24386     24385     24386
     24387     24388     24387     24389     24388     24389     24390     24391
     24390     24392     24391     24392     24393     24394     24393     24395
     24394     24395     24396     24397     24396     24398     24397     24398
     24399     24400     24399     24401     24400     24401     24402     24403
     24402     24404     24403     24404     24405     24406     24405     24407
     24406     24407     24408     24409     24408     24410     24409     24410
     24411     24412     24411     24413     24412     24413     24414     24415
     24414     24416     24415     24416     24417     24418     24417     24419
     24418     24419     24420     24421     24420     24422     24421     24422
     24423     24424     24423     24425     24424     24425     24426     24427
     24426     24428     24427     24428     24429     24430     24429     24431
     24430     24431     24432     24433     24432     24434     24433     24434
     24435     24436     24435     24437     24436     24437     24438     24439
     24438     24440     24439     24440     24441     24442     24441     24443
     24442     24443     24444     24445     24444     24446     24445     24446
     24447     24448     24447     24449     24448     24449     24450     24451
     24450     24452     24451     24452     24453     24454     24453     24455
     24454     24455     24456     24457     24456     24458     24457     24458
     24459     24460     24459     24461     24460     24461     24462     24463
     24462     24464     24463     24464     24465     24466     24465     24467
     24466     24467     24468     24469     24468     24470     24469     24470
     24471     24472     24471     24473     24472     24473     24474     24475
     24474     24476     24475     24476     24477     24478     24477     24479
     24478     24479     24480     24481     24480     24482     24481     24482
     24483     24484     24483     24485     24484     24485     24486     24487
     24486     24488     24487     24488     24489     24490     24489     24491
     24490     24491     24492     24493     24492     24494     24493     24494
     24495     24496     24495     24497     24496     24497     24498     24499
     24498     24500     24499     24500     24501     24502     24501     24503
     24502     24503     24504     24505     24504     24506     24505     24506
     24507     24508     24507     24509     24508     24509     24510     24511
     24510     24512     24511     24512     24513     24514     24513     24515
     24514     24515     24516     24517     24516     24518     24517     24518
     24519     24520     24519     24521     24520     24521     24522     24523
     24522     24524     24523     24524     24525     24526     24525     24527
     24526     24527     24528     24529     24528     24530     24529     24530
     24531     24532     24531     24533     24532     24533     24534     24535
     24534     24536     24535     24536     24537     24538     24537     24539
     24538     24539     24540     24541     24540     24542     24541     24542
     24543     24544     24543     24545     24544     24545     24546     24547
     24546     24548     24547     24548     24549     24550     24549     24551
     24550     24551     24552     24553     24552     24554     24553     24554
     24555     24556     24555     24557     24556     24557     24558     24559
     24558     24560     24559     24560     24561     24562     24561     24563
     24562     24563     24564     24565     24564     24566     24565     24566
     24567     24568     24567     24569     24568     24569     24570     24571
     24570     24572     24571     24572     24573     24574     24573     24575
     24574     24575     24576     24577     24576     24578     24577     24578
     24579     24580     24579     24581     24580     24581     24582     24583
     24582     24584     24583     24584     24585     24586     24585     24587
     24586     24587     24588     24589     24588     24590     24589     24590
     24591     24592     24591     24593     24592     24593     24594     24595
     24594     24596     24595     24596     24597     24598     24597     24599
     24598     24599     24600     24601     24600     24602     24601     24602
     24603     24604     24603     24605     24604     24605     24606     24607
     24606     24608     24607     24608     24609     24610     24609     24611
     24610     24611     24612     24613     24612     24614     24613     24614
     24615     24616     24615     24617     24616     24617     24618     24619
     24618     24620     24619     24620     24621     24622     24621     24623
     24622     24623     24624     24625     24624     24626     24625     24626
     24627     24628     24627     24629     24628     24629     24630     24631
     24630     24632     24631     24632     24633     24634     24633     24635
     24634     24635     24636     24637     24636     24638     24637     24638
     24639     24640     24639     24641     24640     24641     24642     24643
     24642     24644     24643     24644     24645     24646     24645     24647
     24646     24647     24648     24649     24648     24650     24649     24650
     24651     24652     24651     24653     24652     24653     24654     24655
     24654     24656     24655     24656     24657     24658     24657     24659
     24658     24659     24660     24661     24660     24662     24661     24662
     24663     24664     24663     24665     24664     24665     24666     24667
     24666     24668     24667     24668     24669     24670     24669     24671
     24670     24671     24672     24673     24672     24674     24673     24674
     24675     24676     24675     24677     24676     24677     24678     24679
     24678     24680     24679     24680     24681     24682     24681     24683
     24682     24683     24684     24685     24684     24686     24685     24686
     24687     24688     24687     24689     24688     24689     24690     24691
     24690     24692     24691     24692     24693     24694     24693     24695
     24694     24695     24696     24697     24696     24698     24697     24698
     24699     24700     24699     24701     24700     24701     24702     24703
     24702     24704     24703     24704     24705     24706     24705     24707
     24706     24707     24708     24709     24708     24710     24709     24710
     24711     24712     24711     24713     24712     24713     24714     24715
     24714     24716     24715     24716     24717     24718     24717     24719
     24718     24719     24720     24721     24720     24722     24721     24722
     24723     24724     24723     24725     24724     24725     24726     24727
     24726     24728     24727     24728     24729     24730     24729     24731
     24730     24731     24732     24733     24732     24734     24733     24734
     24735     24736     24735     24737     24736     24737     24738     24739
     24738     24740     24739     24740     24741     24742     24741     24743
     24742     24743     24744     24745     24744     24746     24745     24746
     24747     24748     24747     24749     24748     24749     24750     24751
     24750     24752     24751     24752     24753     24754     24753     24755
     24754     24755     24756     24757     24756     24758     24757     24758
     24759     24760     24759     24761     24760     24761     24762     24763
     24762     24764     24763     24764     24765     24766     24765     24767
     24766     24767     24768     24769     24768     24770     24769     24770
     24771     24772     24771     24773     24772     24773     24774     24775
     24774     24776     24775     24776     24777     24778     24777     24779
     24778     24779     24780     24781     24780     24782     24781     24782
     24783     24784     24783     24785     24784     24785     24786     24787
     24786     24788     24787     24788     24789     24790     24789     24791
     24790     24791     24792     24793     24792     24794     24793     24794
     24795     24796     24795     24797     24796     24797     24798     24799
     24798     24800     24799     24800     24801     24802     24801     24803
     24802     24803     24804     24805     24804     24806     24805     24806
     24807     24808     24807     24809     24808     24809     24810     24811
     24810     24812     24811     24812     24813     24814     24813     24815
     24814     24815     24816     24817     24816     24818     24817     24818
     24819     24820     24819     24821     24820     24821     24822     24823
     24822     24824     24823     24824     24825     24826     24825     24827
     24826     24827     24828     24829     24828     24830     24829     24830
     24831     24832     24831     24833     24832     24833     24834     24835
     24834     24836     24835     24836     24837     24838     24837     24839
     24838     24839     24840     24841     24840     24842     24841     24842
     24843     24844     24843     24845     24844     24845     24846     24847
     24846     24848     24847     24848     24849     24850     24849     24851
     24850     24851     24852     24853     24852     24854     24853     24854
     24855     24856     24855     24857     24856     24857     24858     24859
     24858     24860     24859     24860     24861     24862     24861     24863
     24862     24863     24864     24865     24864     24866     24865     24866
     24867     24868     24867     24869     24868     24869     24870     24871
     24870     24872     24871     24872     24873     24874     24873     24875
     24874     24875     24876     24877     24876     24878     24877     24878
     24879     24880     24879     24881     24880     24881     24882     24883
     24882     24884     24883     24884     24885     24886     24885     24887
     24886     24887     24888     24889     24888     24890     24889     24890
     24891     24892     24891     24893     24892     24893     24894     24895
     24894     24896     24895     24896     24897     24898     24897     24899
     24898     24899     24900     24901     24900     24902     24901     24902
     24903     24904     24903     24905     24904     24905     24906     24907
     24906     24908     24907     24908     24909     24910     24909     24911
     24910     24911     24912     24913     24912     24914     24913     24914
     24915     24916     24915     24917     24916     24917     24918     24919
     24918     24920     24919     24920     24921     24922     24921     24923
     24922     24923     24924     24925     24924     24926     24925     24926
     24927     24928     24927     24929     24928     24929     24930     24931
     24930     24932     24931     24932     24933     24934     24933     24935
     24934     24935     24936     24937     24936     24938     24937     24938
     24939     24940     24939     24941     24940     24941     24942     24943
     24942     24944     24943     24944     24945     24946     24945     24947
     24946     24947     24948     24949     24948     24950     24949     24950
     24951     24952     24951     24953     24952     24953     24954     24955
     24954     24956     24955     24956     24957     24958     24957     24959
     24958     24959     24960     24961     24960     24962     24961     24962
     24963     24964     24963     24965     24964     24965     24966     24967
     24966     24968     24967     24968     24969     24970     24969     24971
     24970     24971     24972     24973     24972     24974     24973     24974
     24975     24976     24975     24977     24976     24977     24978     24979
     24978     24980     24979     24980     24981     24982     24981     24983
     24982     24983     24984     24985     24984     24986     24985     24986
     24987     24988     24987     24989     24988     24989     24990     24991
     24990     24992     24991     24992     24993     24994     24993     24995
     24994     24995     24996     24997     24996     24998     24997     24998
     24999     25000     24999     25001     25000     25001     25002     25003
     25002     25004     25003     25004     25005     25006     25005     25007
     25006     25007     25008     25009     25008     25010     25009     25010
     25011     25012     25011     25013     25012     25013     25014     25015
     25014     25016     25015     25016     25017     25018     25017     25019
     25018     25019     25020     25021     25020     25022     25021     25022
     25023     25024     25023     25025     25024     25025     25026     25027
     25026     25028     25027     25028     25029     25030     25029     25031
     25030     25031     25032     25033     25032     25034     25033     25034
     25035     25036     25035     25037     25036     25037     25038     25039
     25038     25040     25039     25040     25041     25042     25041     25043
     25042     25043     25044     25045     25044     25046     25045     25046
     25047     25048     25047     25049     25048     25049     25050     25051
     25050     25052     25051     25052     25053     25054     25053     25055
     25054     25055     25056     25057     25056     25058     25057     25058
     25059     25060     25059     25061     25060     25061     25062     25063
     25062     25064     25063     25064     25065     25066     25065     25067
     25066     25067     25068     25069     25068     25070     25069     25070
     25071     25072     25071     25073     25072     25073     25074     25075
     25074     25076     25075     25076     25077     25078     25077     25079
     25078     25079     25080     25081     25080     25082     25081     25082
     25083     25084     25083     25085     25084     25085     25086     25087
     25086     25088     25087     25088     25089     25090     25089     25091
     25090     25091     25092     25093     25092     25094     25093     25094
     25095     25096     25095     25097     25096     25097     25098     25099
     25098     25100     25099     25100     25101     25102     25101     25103
     25102     25103     25104     25105     25104     25106     25105     25106
     25107     25108     25107     25109     25108     25109     25110     25111
     25110     25112     25111     25112     25113     25114     25113     25115
     25114     25115     25116     25117     25116     25118     25117     25118
     25119     25120     25119     25121     25120     25121     25122     25123
     25122     25124     25123     25124     25125     25126     25125     25127
     25126     25127     25128     25129     25128     25130     25129     25130
     25131     25132     25131     25133     25132     25133     25134     25135
     25134     25136     25135     25136     25137     25138     25137     25139
     25138     25139     25140     25141     25140     25142     25141     25142
     25143     25144     25143     25145     25144     25145     25146     25147
     25146     25148     25147     25148     25149     25150     25149     25151
     25150     25151     25152     25153     25152     25154     25153     25154
     25155     25156     25155     25157     25156     25157     25158     25159
     25158     25160     25159     25160     25161     25162     25161     25163
     25162     25163     25164     25165     25164     25166     25165     25166
     25167     25168     25167     25169     25168     25169     25170     25171
     25170     25172     25171     25172     25173     25174     25173     25175
     25174     25175     25176     25177     25176     25178     25177     25178
     25179     25180     25179     25181     25180     25181     25182     25183
     25182     25184     25183     25184     25185     25186     25185     25187
     25186     25187     25188     25189     25188     25190     25189     25190
     25191     25192     25191     25193     25192     25193     25194     25195
     25194     25196     25195     25196     25197     25198     25197     25199
     25198     25199     25200     25201     25200     25202     25201     25202
     25203     25204     25203     25205     25204     25205     25206     25207
     25206     25208     25207     25208     25209     25210     25209     25211
     25210     25211     25212     25213     25212     25214     25213     25214
     25215     25216     25215     25217     25216     25217     25218     25219
     25218     25220     25219     25220     25221     25222     25221     25223
     25222     25223     25224     25225     25224     25226     25225     25226
     25227     25228     25227     25229     25228     25229     25230     25231
     25230     25232     25231     25232     25233     25234     25233     25235
     25234     25235     25236     25237     25236     25238     25237     25238
     25239     25240     25239     25241     25240     25241     25242     25243
     25242     25244     25243     25244     25245     25246     25245     25247
     25246     25247     25248     25249     25248     25250     25249     25250
     25251     25252     25251     25253     25252     25253     25254     25255
     25254     25256     25255     25256     25257     25258     25257     25259
     25258     25259     25260     25261     25260     25262     25261     25262
     25263     25264     25263     25265     25264     25265     25266     25267
     25266     25268     25267     25268     25269     25270     25269     25271
     25270     25271     25272     25273     25272     25274     25273     25274
     25275     25276     25275     25277     25276     25277     25278     25279
     25278     25280     25279     25280     25281     25282     25281     25283
     25282     25283     25284     25285     25284     25286     25285     25286
     25287     25288     25287     25289     25288     25289     25290     25291
     25290     25292     25291     25292     25293     25294     25293     25295
     25294     25295     25296     25297     25296     25298     25297     25298
     25299     25300     25299     25301     25300     25301     25302     25303
     25302     25304     25303     25304     25305     25306     25305     25307
     25306     25307     25308     25309     25308     25310     25309     25310
     25311     25312     25311     25313     25312     25313     25314     25315
     25314     25316     25315     25316     25317     25318     25317     25319
     25318     25319     25320     25321     25320     25322     25321     25322
     25323     25324     25323     25325     25324     25325     25326     25327
     25326     25328     25327     25328     25329     25330     25329     25331
     25330     25331     25332     25333     25332     25334     25333     25334
     25335     25336     25335     25337     25336     25337     25338     25339
     25338     25340     25339     25340     25341     25342     25341     25343
     25342     25343     25344     25345     25344     25346     25345     25346
     25347     25348     25347     25349     25348     25349     25350     25351
     25350     25352     25351     25352     25353     25354     25353     25355
     25354     25355     25356     25357     25356     25358     25357     25358
     25359     25360     25359     25361     25360     25361     25362     25363
     25362     25364     25363     25364     25365     25366     25365     25367
     25366     25367     25368     25369     25368     25370     25369     25370
     25371     25372     25371     25373     25372     25373     25374     25375
     25374     25376     25375     25376     25377     25378     25377     25379
     25378     25379     25380     25381     25380     25382     25381     25382
     25383     25384     25383     25385     25384     25385     25386     25387
     25386     25388     25387     25388     25389     25390     25389     25391
     25390     25391     25392     25393     25392     25394     25393     25394
     25395     25396     25395     25397     25396     25397     25398     25399
     25398     25400     25399     25400     25401     25402     25401     25403
     25402     25403     25404     25405     25404     25406     25405     25406
     25407     25408     25407     25409     25408     25409     25410     25411
     25410     25412     25411     25412     25413     25414     25413     25415
     25414     25415     25416     25417     25416     25418     25417     25418
     25419     25420     25419     25421     25420     25421     25422     25423
     25422     25424     25423     25424     25425     25426     25425     25427
     25426     25427     25428     25429     25428     25430     25429     25430
     25431     25432     25431     25433     25432     25433     25434     25435
     25434     25436     25435     25436     25437     25438     25437     25439
     25438     25439     25440     25441     25440     25442     25441     25442
     25443     25444     25443     25445     25444     25445     25446     25447
     25446     25448     25447     25448     25449     25450     25449     25451
     25450     25451     25452     25453     25452     25454     25453     25454
     25455     25456     25455     25457     25456     25457     25458     25459
     25458     25460     25459     25460     25461     25462     25461     25463
     25462     25463     25464     25465     25464     25466     25465     25466
     25467     25468     25467     25469     25468     25469     25470     25471
     25470     25472     25471     25472     25473     25474     25473     25475
     25474     25475     25476     25477     25476     25478     25477     25478
     25479     25480     25479     25481     25480     25481     25482     25483
     25482     25484     25483     25484     25485     25486     25485     25487
     25486     25487     25488     25489     25488     25490     25489     25490
     25491     25492     25491     25493     25492     25493     25494     25495
     25494     25496     25495     25496     25497     25498     25497     25499
     25498     25499     25500     25501     25500     25502     25501     25502
     25503     25504     25503     25505     25504     25505     25506     25507
     25506     25508     25507     25508     25509     25510     25509     25511
     25510     25511     25512     25513     25512     25514     25513     25514
     25515     25516     25515     25517     25516     25517     25518     25519
     25518     25520     25519     25520     25521     25522     25521     25523
     25522     25523     25524     25525     25524     25526     25525     25526
     25527     25528     25527     25529     25528     25529     25530     25531
     25530     25532     25531     25532     25533     25534     25533     25535
     25534     25535     25536     25537     25536     25538     25537     25538
     25539     25540     25539     25541     25540     25541     25542     25543
     25542     25544     25543     25544     25545     25546     25545     25547
     25546     25547     25548     25549     25548     25550     25549     25550
     25551     25552     25551     25553     25552     25553     25554     25555
     25554     25556     25555     25556     25557     25558     25557     25559
     25558     25559     25560     25561     25560     25562     25561     25562
     25563     25564     25563     25565     25564     25565     25566     25567
     25566     25568     25567     25568     25569     25570     25569     25571
     25570     25571     25572     25573     25572     25574     25573     25574
     25575     25576     25575     25577     25576     25577     25578     25579
     25578     25580     25579     25580     25581     25582     25581     25583
     25582     25583     25584     25585     25584     25586     25585     25586
     25587     25588     25587     25589     25588     25589     25590     25591
     25590     25592     25591     25592     25593     25594     25593     25595
     25594     25595     25596     25597     25596     25598     25597     25598
     25599     25600     25599     25601     25600     25601     25602     25603
     25602     25604     25603     25604     25605     25606     25605     25607
     25606     25607     25608     25609     25608     25610     25609     25610
     25611     25612     25611     25613     25612     25613     25614     25615
     25614     25616     25615     25616     25617     25618     25617     25619
     25618     25619     25620     25621     25620     25622     25621     25622
     25623     25624     25623     25625     25624     25625     25626     25627
     25626     25628     25627     25628     25629     25630     25629     25631
     25630     25631     25632     25633     25632     25634     25633     25634
     25635     25636     25635     25637     25636     25637     25638     25639
     25638     25640     25639     25640     25641     25642     25641     25643
     25642     25643     25644     25645     25644     25646     25645     25646
     25647     25648     25647     25649     25648     25649     25650     25651
     25650     25652     25651     25652     25653     25654     25653     25655
     25654     25655     25656     25657     25656     25658     25657     25658
     25659     25660     25659     25661     25660     25661     25662     25663
     25662     25664     25663     25664     25665     25666     25665     25667
     25666     25667     25668     25669     25668     25670     25669     25670
     25671     25672     25671     25673     25672     25673     25674     25675
     25674     25676     25675     25676     25677     25678     25677     25679
     25678     25679     25680     25681     25680     25682     25681     25682
     25683     25684     25683     25685     25684     25685     25686     25687
     25686     25688     25687     25688     25689     25690     25689     25691
     25690     25691     25692     25693     25692     25694     25693     25694
     25695     25696     25695     25697     25696     25697     25698     25699
     25698     25700     25699     25700     25701     25702     25701     25703
     25702     25703     25704     25705     25704     25706     25705     25706
     25707     25708     25707     25709     25708     25709     25710     25711
     25710     25712     25711     25712     25713     25714     25713     25715
     25714     25715     25716     25717     25716     25718     25717     25718
     25719     25720     25719     25721     25720     25721     25722     25723
     25722     25724     25723     25724     25725     25726     25725     25727
     25726     25727     25728     25729     25728     25730     25729     25730
     25731     25732     25731     25733     25732     25733     25734     25735
     25734     25736     25735     25736     25737     25738     25737     25739
     25738     25739     25740     25741     25740     25742     25741     25742
     25743     25744     25743     25745     25744     25745     25746     25747
     25746     25748     25747     25748     25749     25750     25749     25751
     25750     25751     25752     25753     25752     25754     25753     25754
     25755     25756     25755     25757     25756     25757     25758     25759
     25758     25760     25759     25760     25761     25762     25761     25763
     25762     25763     25764     25765     25764     25766     25765     25766
     25767     25768     25767     25769     25768     25769     25770     25771
     25770     25772     25771     25772     25773     25774     25773     25775
     25774     25775     25776     25777     25776     25778     25777     25778
     25779     25780     25779     25781     25780     25781     25782     25783
     25782     25784     25783     25784     25785     25786     25785     25787
     25786     25787     25788     25789     25788     25790     25789     25790
     25791     25792     25791     25793     25792     25793     25794     25795
     25794     25796     25795     25796     25797     25798     25797     25799
     25798     25799     25800     25801     25800     25802     25801     25802
     25803     25804     25803     25805     25804     25805     25806     25807
     25806     25808     25807     25808     25809     25810     25809     25811
     25810     25811     25812     25813     25812     25814     25813     25814
     25815     25816     25815     25817     25816     25817     25818     25819
     25818     25820     25819     25820     25821     25822     25821     25823
     25822     25823     25824     25825     25824     25826     25825     25826
     25827     25828     25827     25829     25828     25829     25830     25831
     25830     25832     25831     25832     25833     25834     25833     25835
     25834     25835     25836     25837     25836     25838     25837     25838
     25839     25840     25839     25841     25840     25841     25842     25843
     25842     25844     25843     25844     25845     25846     25845     25847
     25846     25847     25848     25849     25848     25850     25849     25850
     25851     25852     25851     25853     25852     25853     25854     25855
     25854     25856     25855     25856     25857     25858     25857     25859
     25858     25859     25860     25861     25860     25862     25861     25862
     25863     25864     25863     25865     25864     25865     25866     25867
     25866     25868     25867     25868     25869     25870     25869     25871
     25870     25871     25872     25873     25872     25874     25873     25874
     25875     25876     25875     25877     25876     25877     25878     25879
     25878     25880     25879     25880     25881     25882     25881     25883
     25882     25883     25884     25885     25884     25886     25885     25886
     25887     25888     25887     25889     25888     25889     25890     25891
     25890     25892     25891     25892     25893     25894     25893     25895
     25894     25895     25896     25897     25896     25898     25897     25898
     25899     25900     25899     25901     25900     25901     25902     25903
     25902     25904     25903     25904     25905     25906     25905     25907
     25906     25907     25908     25909     25908     25910     25909     25910
     25911     25912     25911     25913     25912     25913     25914     25915
     25914     25916     25915     25916     25917     25918     25917     25919
     25918     25919     25920     25921     25920     25922     25921     25922
     25923     25924     25923     25925     25924     25925     25926     25927
     25926     25928     25927     25928     25929     25930     25929     25931
     25930     25931     25932     25933     25932     25934     25933     25934
     25935     25936     25935     25937     25936     25937     25938     25939
     25938     25940     25939     25940     25941     25942     25941     25943
     25942     25943     25944     25945     25944     25946     25945     25946
     25947     25948     25947     25949     25948     25949     25950     25951
     25950     25952     25951     25952     25953     25954     25953     25955
     25954     25955     25956     25957     25956     25958     25957     25958
     25959     25960     25959     25961     25960     25961     25962     25963
     25962     25964     25963     25964     25965     25966     25965     25967
     25966     25967     25968     25969     25968     25970     25969     25970
     25971     25972     25971     25973     25972     25973     25974     25975
     25974     25976     25975     25976     25977     25978     25977     25979
     25978     25979     25980     25981     25980     25982     25981     25982
     25983     25984     25983     25985     25984     25985     25986     25987
     25986     25988     25987     25988     25989     25990     25989     25991
     25990     25991     25992     25993     25992     25994     25993     25994
     25995     25996     25995     25997     25996     25997     25998     25999
     25998     26000     25999     26000     26001     26002     26001     26003
     26002     26003     26004     26005     26004     26006     26005     26006
     26007     26008     26007     26009     26008     26009     26010     26011
     26010     26012     26011     26012     26013     26014     26013     26015
     26014     26015     26016     26017     26016     26018     26017     26018
     26019     26020     26019     26021     26020     26021     26022     26023
     26022     26024     26023     26024     26025     26026     26025     26027
     26026     26027     26028     26029     26028     26030     26029     26030
     26031     26032     26031     26033     26032     26033     26034     26035
     26034     26036     26035     26036     26037     26038     26037     26039
     26038     26039     26040     26041     26040     26042     26041     26042
     26043     26044     26043     26045     26044     26045     26046     26047
     26046     26048     26047     26048     26049     26050     26049     26051
     26050     26051     26052     26053     26052     26054     26053     26054
     26055     26056     26055     26057     26056     26057     26058     26059
     26058     26060     26059     26060     26061     26062     26061     26063
     26062     26063     26064     26065     26064     26066     26065     26066
     26067     26068     26067     26069     26068     26069     26070     26071
     26070     26072     26071     26072     26073     26074     26073     26075
     26074     26075     26076     26077     26076     26078     26077     26078
     26079     26080     26079     26081     26080     26081     26082     26083
     26082     26084     26083     26084     26085     26086     26085     26087
     26086     26087     26088     26089     26088     26090     26089     26090
     26091     26092     26091     26093     26092     26093     26094     26095
     26094     26096     26095     26096     26097     26098     26097     26099
     26098     26099     26100     26101     26100     26102     26101     26102
     26103     26104     26103     26105     26104     26105     26106     26107
     26106     26108     26107     26108     26109     26110     26109     26111
     26110     26111     26112     26113     26112     26114     26113     26114
     26115     26116     26115     26117     26116     26117     26118     26119
     26118     26120     26119     26120     26121     26122     26121     26123
     26122     26123     26124     26125     26124     26126     26125     26126
     26127     26128     26127     26129     26128     26129     26130     26131
     26130     26132     26131     26132     26133     26134     26133     26135
     26134     26135     26136     26137     26136     26138     26137     26138
     26139     26140     26139     26141     26140     26141     26142     26143
     26142     26144     26143     26144     26145     26146     26145     26147
     26146     26147     26148     26149     26148     26150     26149     26150
     26151     26152     26151     26153     26152     26153     26154     26155
     26154     26156     26155     26156     26157     26158     26157     26159
     26158     26159     26160     26161     26160     26162     26161     26162
     26163     26164     26163     26165     26164     26165     26166     26167
     26166     26168     26167     26168     26169     26170     26169     26171
     26170     26171     26172     26173     26172     26174     26173     26174
     26175     26176     26175     26177     26176     26177     26178     26179
     26178     26180     26179     26180     26181     26182     26181     26183
     26182     26183     26184     26185     26184     26186     26185     26186
     26187     26188     26187     26189     26188     26189     26190     26191
     26190     26192     26191     26192     26193     26194     26193     26195
     26194     26195     26196     26197     26196     26198     26197     26198
     26199     26200     26199     26201     26200     26201     26202     26203
     26202     26204     26203     26204     26205     26206     26205     26207
     26206     26207     26208     26209     26208     26210     26209     26210
     26211     26212     26211     26213     26212     26213     26214     26215
     26214     26216     26215     26216     26217     26218     26217     26219
     26218     26219     26220     26221     26220     26222     26221     26222
     26223     26224     26223     26225     26224     26225     26226     26227
     26226     26228     26227     26228     26229     26230     26229     26231
     26230     26231     26232     26233     26232     26234     26233     26234
     26235     26236     26235     26237     26236     26237     26238     26239
     26238     26240     26239     26240     26241     26242     26241     26243
     26242     26243     26244     26245     26244     26246     26245     26246
     26247     26248     26247     26249     26248     26249     26250     26251
     26250     26252     26251     26252     26253     26254     26253     26255
     26254     26255     26256     26257     26256     26258     26257     26258
     26259     26260     26259     26261     26260     26261     26262     26263
     26262     26264     26263     26264     26265     26266     26265     26267
     26266     26267     26268     26269     26268     26270     26269     26270
     26271     26272     26271     26273     26272     26273     26274     26275
     26274     26276     26275     26276     26277     26278     26277     26279
     26278     26279     26280     26281     26280     26282     26281     26282
     26283     26284     26283     26285     26284     26285     26286     26287
     26286     26288     26287     26288     26289     26290     26289     26291
     26290     26291     26292     26293     26292     26294     26293     26294
     26295     26296     26295     26297     26296     26297     26298     26299
     26298     26300     26299     26300     26301     26302     26301     26303
     26302     26303     26304     26305     26304     26306     26305     26306
     26307     26308     26307     26309     26308     26309     26310     26311
     26310     26312     26311     26312     26313     26314     26313     26315
     26314     26315     26316     26317     26316     26318     26317     26318
     26319     26320     26319     26321     26320     26321     26322     26323
     26322     26324     26323     26324     26325     26326     26325     26327
     26326     26327     26328     26329     26328     26330     26329     26330
     26331     26332     26331     26333     26332     26333     26334     26335
     26334     26336     26335     26336     26337     26338     26337     26339
     26338     26339     26340     26341     26340     26342     26341     26342
     26343     26344     26343     26345     26344     26345     26346     26347
     26346     26348     26347     26348     26349     26350     26349     26351
     26350     26351     26352     26353     26352     26354     26353     26354
     26355     26356     26355     26357     26356     26357     26358     26359
     26358     26360     26359     26360     26361     26362     26361     26363
     26362     26363     26364     26365     26364     26366     26365     26366
     26367     26368     26367     26369     26368     26369     26370     26371
     26370     26372     26371     26372     26373     26374     26373     26375
     26374     26375     26376     26377     26376     26378     26377     26378
     26379     26380     26379     26381     26380     26381     26382     26383
     26382     26384     26383     26384     26385     26386     26385     26387
     26386     26387     26388     26389     26388     26390     26389     26390
     26391     26392     26391     26393     26392     26393     26394     26395
     26394     26396     26395     26396     26397     26398     26397     26399
     26398     26399     26400     26401     26400     26402     26401     26402
     26403     26404     26403     26405     26404     26405     26406     26407
     26406     26408     26407     26408     26409     26410     26409     26411
     26410     26411     26412     26413     26412     26414     26413     26414
     26415     26416     26415     26417     26416     26417     26418     26419
     26418     26420     26419     26420     26421     26422     26421     26423
     26422     26423     26424     26425     26424     26426     26425     26426
     26427     26428     26427     26429     26428     26429     26430     26431
     26430     26432     26431     26432     26433     26434     26433     26435
     26434     26435     26436     26437     26436     26438     26437     26438
     26439     26440     26439     26441     26440     26441     26442     26443
     26442     26444     26443     26444     26445     26446     26445     26447
     26446     26447     26448     26449     26448     26450     26449     26450
     26451     26452     26451     26453     26452     26453     26454     26455
     26454     26456     26455     26456     26457     26458     26457     26459
     26458     26459     26460     26461     26460     26462     26461     26462
     26463     26464     26463     26465     26464     26465     26466     26467
     26466     26468     26467     26468     26469     26470     26469     26471
     26470     26471     26472     26473     26472     26474     26473     26474
     26475     26476     26475     26477     26476     26477     26478     26479
     26478     26480     26479     26480     26481     26482     26481     26483
     26482     26483     26484     26485     26484     26486     26485     26486
     26487     26488     26487     26489     26488     26489     26490     26491
     26490     26492     26491     26492     26493     26494     26493     26495
     26494     26495     26496     26497     26496     26498     26497     26498
     26499     26500     26499     26501     26500     26501     26502     26503
     26502     26504     26503     26504     26505     26506     26505     26507
     26506     26507     26508     26509     26508     26510     26509     26510
     26511     26512     26511     26513     26512     26513     26514     26515
     26514     26516     26515     26516     26517     26518     26517     26519
     26518     26519     26520     26521     26520     26522     26521     26522
     26523     26524     26523     26525     26524     26525     26526     26527
     26526     26528     26527     26528     26529     26530     26529     26531
     26530     26531     26532     26533     26532     26534     26533     26534
     26535     26536     26535     26537     26536     26537     26538     26539
     26538     26540     26539     26540     26541     26542     26541     26543
     26542     26543     26544     26545     26544     26546     26545     26546
     26547     26548     26547     26549     26548     26549     26550     26551
     26550     26552     26551     26552     26553     26554     26553     26555
     26554     26555     26556     26557     26556     26558     26557     26558
     26559     26560     26559     26561     26560     26561     26562     26563
     26562     26564     26563     26564     26565     26566     26565     26567
     26566     26567     26568     26569     26568     26570     26569     26570
     26571     26572     26571     26573     26572     26573     26574     26575
     26574     26576     26575     26576     26577     26578     26577     26579
     26578     26579     26580     26581     26580     26582     26581     26582
     26583     26584     26583     26585     26584     26585     26586     26587
     26586     26588     26587     26588     26589     26590     26589     26591
     26590     26591     26592     26593     26592     26594     26593     26594
     26595     26596     26595     26597     26596     26597     26598     26599
     26598     26600     26599     26600     26601     26602     26601     26603
     26602     26603     26604     26605     26604     26606     26605     26606
     26607     26608     26607     26609     26608     26609     26610     26611
     26610     26612     26611     26612     26613     26614     26613     26615
     26614     26615     26616     26617     26616     26618     26617     26618
     26619     26620     26619     26621     26620     26621     26622     26623
     26622     26624     26623     26624     26625     26626     26625     26627
     26626     26627     26628     26629     26628     26630     26629     26630
     26631     26632     26631     26633     26632     26633     26634     26635
     26634     26636     26635     26636     26637     26638     26637     26639
     26638     26639     26640     26641     26640     26642     26641     26642
     26643     26644     26643     26645     26644     26645     26646     26647
     26646     26648     26647     26648     26649     26650     26649     26651
     26650     26651     26652     26653     26652     26654     26653     26654
     26655     26656     26655     26657     26656     26657     26658     26659
     26658     26660     26659     26660     26661     26662     26661     26663
     26662     26663     26664     26665     26664     26666     26665     26666
     26667     26668     26667     26669     26668     26669     26670     26671
     26670     26672     26671     26672     26673     26674     26673     26675
     26674     26675     26676     26677     26676     26678     26677     26678
     26679     26680     26679     26681     26680     26681     26682     26683
     26682     26684     26683     26684     26685     26686     26685     26687
     26686     26687     26688     26689     26688     26690     26689     26690
     26691     26692     26691     26693     26692     26693     26694     26695
     26694     26696     26695     26696     26697     26698     26697     26699
     26698     26699     26700     26701     26700     26702     26701     26702
     26703     26704     26703     26705     26704     26705     26706     26707
     26706     26708     26707     26708     26709     26710     26709     26711
     26710     26711     26712     26713     26712     26714     26713     26714
     26715     26716     26715     26717     26716     26717     26718     26719
     26718     26720     26719     26720     26721     26722     26721     26723
     26722     26723     26724     26725     26724     26726     26725     26726
     26727     26728     26727     26729     26728     26729     26730     26731
     26730     26732     26731     26732     26733     26734     26733     26735
     26734     26735     26736     26737     26736     26738     26737     26738
     26739     26740     26739     26741     26740     26741     26742     26743
     26742     26744     26743     26744     26745     26746     26745     26747
     26746     26747     26748     26749     26748     26750     26749     26750
     26751     26752     26751     26753     26752     26753     26754     26755
     26754     26756     26755     26756     26757     26758     26757     26759
     26758     26759     26760     26761     26760     26762     26761     26762
     26763     26764     26763     26765     26764     26765     26766     26767
     26766     26768     26767     26768     26769     26770     26769     26771
     26770     26771     26772     26773     26772     26774     26773     26774
     26775     26776     26775     26777     26776     26777     26778     26779
     26778     26780     26779     26780     26781     26782     26781     26783
     26782     26783     26784     26785     26784     26786     26785     26786
     26787     26788     26787     26789     26788     26789     26790     26791
     26790     26792     26791     26792     26793     26794     26793     26795
     26794     26795     26796     26797     26796     26798     26797     26798
     26799     26800     26799     26801     26800     26801     26802     26803
     26802     26804     26803     26804     26805     26806     26805     26807
     26806     26807     26808     26809     26808     26810     26809     26810
     26811     26812     26811     26813     26812     26813     26814     26815
     26814     26816     26815     26816     26817     26818     26817     26819
     26818     26819     26820     26821     26820     26822     26821     26822
     26823     26824     26823     26825     26824     26825     26826     26827
     26826     26828     26827     26828     26829     26830     26829     26831
     26830     26831     26832     26833     26832     26834     26833     26834
     26835     26836     26835     26837     26836     26837     26838     26839
     26838     26840     26839     26840     26841     26842     26841     26843
     26842     26843     26844     26845     26844     26846     26845     26846
     26847     26848     26847     26849     26848     26849     26850     26851
     26850     26852     26851     26852     26853     26854     26853     26855
     26854     26855     26856     26857     26856     26858     26857     26858
     26859     26860     26859     26861     26860     26861     26862     26863
     26862     26864     26863     26864     26865     26866     26865     26867
     26866     26867     26868     26869     26868     26870     26869     26870
     26871     26872     26871     26873     26872     26873     26874     26875
     26874     26876     26875     26876     26877     26878     26877     26879
     26878     26879     26880     26881     26880     26882     26881     26882
     26883     26884     26883     26885     26884     26885     26886     26887
     26886     26888     26887     26888     26889     26890     26889     26891
     26890     26891     26892     26893     26892     26894     26893     26894
     26895     26896     26895     26897     26896     26897     26898     26899
     26898     26900     26899     26900     26901     26902     26901     26903
     26902     26903     26904     26905     26904     26906     26905     26906
     26907     26908     26907     26909     26908     26909     26910     26911
     26910     26912     26911     26912     26913     26914     26913     26915
     26914     26915     26916     26917     26916     26918     26917     26918
     26919     26920     26919     26921     26920     26921     26922     26923
     26922     26924     26923     26924     26925     26926     26925     26927
     26926     26927     26928     26929     26928     26930     26929     26930
     26931     26932     26931     26933     26932     26933     26934     26935
     26934     26936     26935     26936     26937     26938     26937     26939
     26938     26939     26940     26941     26940     26942     26941     26942
     26943     26944     26943     26945     26944     26945     26946     26947
     26946     26948     26947     26948     26949     26950     26949     26951
     26950     26951     26952     26953     26952     26954     26953     26954
     26955     26956     26955     26957     26956     26957     26958     26959
     26958     26960     26959     26960     26961     26962     26961     26963
     26962     26963     26964     26965     26964     26966     26965     26966
     26967     26968     26967     26969     26968     26969     26970     26971
     26970     26972     26971     26972     26973     26974     26973     26975
     26974     26975     26976     26977     26976     26978     26977     26978
     26979     26980     26979     26981     26980     26981     26982     26983
     26982     26984     26983     26984     26985     26986     26985     26987
     26986     26987     26988     26989     26988     26990     26989     26990
     26991     26992     26991     26993     26992     26993     26994     26995
     26994     26996     26995     26996     26997     26998     26997     26999
     26998     26999     27000     27001     27000     27002     27001     27002
     27003     27004     27003     27005     27004     27005     27006     27007
     27006     27008     27007     27008     27009     27010     27009     27011
     27010     27011     27012     27013     27012     27014     27013     27014
     27015     27016     27015     27017     27016     27017     27018     27019
     27018     27020     27019     27020     27021     27022     27021     27023
     27022     27023     27024     27025     27024     27026     27025     27026
     27027     27028     27027     27029     27028     27029     27030     27031
     27030     27032     27031     27032     27033     27034     27033     27035
     27034     27035     27036     27037     27036     27038     27037     27038
     27039     27040     27039     27041     27040     27041     27042     27043
     27042     27044     27043     27044     27045     27046     27045     27047
     27046     27047     27048     27049     27048     27050     27049     27050
     27051     27052     27051     27053     27052     27053     27054     27055
     27054     27056     27055     27056     27057     27058     27057     27059
     27058     27059     27060     27061     27060     27062     27061     27062
     27063     27064     27063     27065     27064     27065     27066     27067
     27066     27068     27067     27068     27069     27070     27069     27071
     27070     27071     27072     27073     27072     27074     27073     27074
     27075     27076     27075     27077     27076     27077     27078     27079
     27078     27080     27079     27080     27081     27082     27081     27083
     27082     27083     27084     27085     27084     27086     27085     27086
     27087     27088     27087     27089     27088     27089     27090     27091
     27090     27092     27091     27092     27093     27094     27093     27095
     27094     27095     27096     27097     27096     27098     27097     27098
     27099     27100     27099     27101     27100     27101     27102     27103
     27102     27104     27103     27104     27105     27106     27105     27107
     27106     27107     27108     27109     27108     27110     27109     27110
     27111     27112     27111     27113     27112     27113     27114     27115
     27114     27116     27115     27116     27117     27118     27117     27119
     27118     27119     27120     27121     27120     27122     27121     27122
     27123     27124     27123     27125     27124     27125     27126     27127
     27126     27128     27127     27128     27129     27130     27129     27131
     27130     27131     27132     27133     27132     27134     27133     27134
     27135     27136     27135     27137     27136     27137     27138     27139
     27138     27140     27139     27140     27141     27142     27141     27143
     27142     27143     27144     27145     27144     27146     27145     27146
     27147     27148     27147     27149     27148     27149     27150     27151
     27150     27152     27151     27152     27153     27154     27153     27155
     27154     27155     27156     27157     27156     27158     27157     27158
     27159     27160     27159     27161     27160     27161     27162     27163
     27162     27164     27163     27164     27165     27166     27165     27167
     27166     27167     27168     27169     27168     27170     27169     27170
     27171     27172     27171     27173     27172     27173     27174     27175
     27174     27176     27175     27176     27177     27178     27177     27179
     27178     27179     27180     27181     27180     27182     27181     27182
     27183     27184     27183     27185     27184     27185     27186     27187
     27186     27188     27187     27188     27189     27190     27189     27191
     27190     27191     27192     27193     27192     27194     27193     27194
     27195     27196     27195     27197     27196     27197     27198     27199
     27198     27200     27199     27200     27201     27202     27201     27203
     27202     27203     27204     27205     27204     27206     27205     27206
     27207     27208     27207     27209     27208     27209     27210     27211
     27210     27212     27211     27212     27213     27214     27213     27215
     27214     27215     27216     27217     27216     27218     27217     27218
     27219     27220     27219     27221     27220     27221     27222     27223
     27222     27224     27223     27224     27225     27226     27225     27227
     27226     27227     27228     27229     27228     27230     27229     27230
     27231     27232     27231     27233     27232     27233     27234     27235
     27234     27236     27235     27236     27237     27238     27237     27239
     27238     27239     27240     27241     27240     27242     27241     27242
     27243     27244     27243     27245     27244     27245     27246     27247
     27246     27248     27247     27248     27249     27250     27249     27251
     27250     27251     27252     27253     27252     27254     27253     27254
     27255     27256     27255     27257     27256     27257     27258     27259
     27258     27260     27259     27260     27261     27262     27261     27263
     27262     27263     27264     27265     27264     27266     27265     27266
     27267     27268     27267     27269     27268     27269     27270     27271
     27270     27272     27271     27272     27273     27274     27273     27275
     27274     27275     27276     27277     27276     27278     27277     27278
     27279     27280     27279     27281     27280     27281     27282     27283
     27282     27284     27283     27284     27285     27286     27285     27287
     27286     27287     27288     27289     27288     27290     27289     27290
     27291     27292     27291     27293     27292     27293     27294     27295
     27294     27296     27295     27296     27297     27298     27297     27299
     27298     27299     27300     27301     27300     27302     27301     27302
     27303     27304     27303     27305     27304     27305     27306     27307
     27306     27308     27307     27308     27309     27310     27309     27311
     27310     27311     27312     27313     27312     27314     27313     27314
     27315     27316     27315     27317     27316     27317     27318     27319
     27318     27320     27319     27320     27321     27322     27321     27323
     27322     27323     27324     27325     27324     27326     27325     27326
     27327     27328     27327     27329     27328     27329     27330     27331
     27330     27332     27331     27332     27333     27334     27333     27335
     27334     27335     27336     27337     27336     27338     27337     27338
     27339     27340     27339     27341     27340     27341     27342     27343
     27342     27344     27343     27344     27345     27346     27345     27347
     27346     27347     27348     27349     27348     27350     27349     27350
     27351     27352     27351     27353     27352     27353     27354     27355
     27354     27356     27355     27356     27357     27358     27357     27359
     27358     27359     27360     27361     27360     27362     27361     27362
     27363     27364     27363     27365     27364     27365     27366     27367
     27366     27368     27367     27368     27369     27370     27369     27371
     27370     27371     27372     27373     27372     27374     27373     27374
     27375     27376     27375     27377     27376     27377     27378     27379
     27378     27380     27379     27380     27381     27382     27381     27383
     27382     27383     27384     27385     27384     27386     27385     27386
     27387     27388     27387     27389     27388     27389     27390     27391
     27390     27392     27391     27392     27393     27394     27393     27395
     27394     27395     27396     27397     27396     27398     27397     27398
     27399     27400     27399     27401     27400     27401     27402     27403
     27402     27404     27403     27404     27405     27406     27405     27407
     27406     27407     27408     27409     27408     27410     27409     27410
     27411     27412     27411     27413     27412     27413     27414     27415
     27414     27416     27415     27416     27417     27418     27417     27419
     27418     27419     27420     27421     27420     27422     27421     27422
     27423     27424     27423     27425     27424     27425     27426     27427
     27426     27428     27427     27428     27429     27430     27429     27431
     27430     27431     27432     27433     27432     27434     27433     27434
     27435     27436     27435     27437     27436     27437     27438     27439
     27438     27440     27439     27440     27441     27442     27441     27443
     27442     27443     27444     27445     27444     27446     27445     27446
     27447     27448     27447     27449     27448     27449     27450     27451
     27450     27452     27451     27452     27453     27454     27453     27455
     27454     27455     27456     27457     27456     27458     27457     27458
     27459     27460     27459     27461     27460     27461     27462     27463
     27462     27464     27463     27464     27465     27466     27465     27467
     27466     27467     27468     27469     27468     27470     27469     27470
     27471     27472     27471     27473     27472     27473     27474     27475
     27474     27476     27475     27476     27477     27478     27477     27479
     27478     27479     27480     27481     27480     27482     27481     27482
     27483     27484     27483     27485     27484     27485     27486     27487
     27486     27488     27487     27488     27489     27490     27489     27491
     27490     27491     27492     27493     27492     27494     27493     27494
     27495     27496     27495     27497     27496     27497     27498     27499
     27498     27500     27499     27500     27501     27502     27501     27503
     27502     27503     27504     27505     27504     27506     27505     27506
     27507     27508     27507     27509     27508     27509     27510     27511
     27510     27512     27511     27512     27513     27514     27513     27515
     27514     27515     27516     27517     27516     27518     27517     27518
     27519     27520     27519     27521     27520     27521     27522     27523
     27522     27524     27523     27524     27525     27526     27525     27527
     27526     27527     27528     27529     27528     27530     27529     27530
     27531     27532     27531     27533     27532     27533     27534     27535
     27534     27536     27535     27536     27537     27538     27537     27539
     27538     27539     27540     27541     27540     27542     27541     27542
     27543     27544     27543     27545     27544     27545     27546     27547
     27546     27548     27547     27548     27549     27550     27549     27551
     27550     27551     27552     27553     27552     27554     27553     27554
     27555     27556     27555     27557     27556     27557     27558     27559
     27558     27560     27559     27560     27561     27562     27561     27563
     27562     27563     27564     27565     27564     27566     27565     27566
     27567     27568     27567     27569     27568     27569     27570     27571
     27570     27572     27571     27572     27573     27574     27573     27575
     27574     27575     27576     27577     27576     27578     27577     27578
     27579     27580     27579     27581     27580     27581     27582     27583
     27582     27584     27583     27584     27585     27586     27585     27587
     27586     27587     27588     27589     27588     27590     27589     27590
     27591     27592     27591     27593     27592     27593     27594     27595
     27594     27596     27595     27596     27597     27598     27597     27599
     27598     27599     27600     27601     27600     27602     27601     27602
     27603     27604     27603     27605     27604     27605     27606     27607
     27606     27608     27607     27608     27609     27610     27609     27611
     27610     27611     27612     27613     27612     27614     27613     27614
     27615     27616     27615     27617     27616     27617     27618     27619
     27618     27620     27619     27620     27621     27622     27621     27623
     27622     27623     27624     27625     27624     27626     27625     27626
     27627     27628     27627     27629     27628     27629     27630     27631
     27630     27632     27631     27632     27633     27634     27633     27635
     27634     27635     27636     27637     27636     27638     27637     27638
     27639     27640     27639     27641     27640     27641     27642     27643
     27642     27644     27643     27644     27645     27646     27645     27647
     27646     27647     27648     27649     27648     27650     27649     27650
     27651     27652     27651     27653     27652     27653     27654     27655
     27654     27656     27655     27656     27657     27658     27657     27659
     27658     27659     27660     27661     27660     27662     27661     27662
     27663     27664     27663     27665     27664     27665     27666     27667
     27666     27668     27667     27668     27669     27670     27669     27671
     27670     27671     27672     27673     27672     27674     27673     27674
     27675     27676     27675     27677     27676     27677     27678     27679
     27678     27680     27679     27680     27681     27682     27681     27683
     27682     27683     27684     27685     27684     27686     27685     27686
     27687     27688     27687     27689     27688     27689     27690     27691
     27690     27692     27691     27692     27693     27694     27693     27695
     27694     27695     27696     27697     27696     27698     27697     27698
     27699     27700     27699     27701     27700     27701     27702     27703
     27702     27704     27703     27704     27705     27706     27705     27707
     27706     27707     27708     27709     27708     27710     27709     27710
     27711     27712     27711     27713     27712     27713     27714     27715
     27714     27716     27715     27716     27717     27718     27717     27719
     27718     27719     27720     27721     27720     27722     27721     27722
     27723     27724     27723     27725     27724     27725     27726     27727
     27726     27728     27727     27728     27729     27730     27729     27731
     27730     27731     27732     27733     27732     27734     27733     27734
     27735     27736     27735     27737     27736     27737     27738     27739
     27738     27740     27739     27740     27741     27742     27741     27743
     27742     27743     27744     27745     27744     27746     27745     27746
     27747     27748     27747     27749     27748     27749     27750     27751
     27750     27752     27751     27752     27753     27754     27753     27755
     27754     27755     27756     27757     27756     27758     27757     27758
     27759     27760     27759     27761     27760     27761     27762     27763
     27762     27764     27763     27764     27765     27766     27765     27767
     27766     27767     27768     27769     27768     27770     27769     27770
     27771     27772     27771     27773     27772     27773     27774     27775
     27774     27776     27775     27776     27777     27778     27777     27779
     27778     27779     27780     27781     27780     27782     27781     27782
     27783     27784     27783     27785     27784     27785     27786     27787
     27786     27788     27787     27788     27789     27790     27789     27791
     27790     27791     27792     27793     27792     27794     27793     27794
     27795     27796     27795     27797     27796     27797     27798     27799
     27798     27800     27799     27800     27801     27802     27801     27803
     27802     27803     27804     27805     27804     27806     27805     27806
     27807     27808     27807     27809     27808     27809     27810     27811
     27810     27812     27811     27812     27813     27814     27813     27815
     27814     27815     27816     27817     27816     27818     27817     27818
     27819     27820     27819     27821     27820     27821     27822     27823
     27822     27824     27823     27824     27825     27826     27825     27827
     27826     27827     27828     27829     27828     27830     27829     27830
     27831     27832     27831     27833     27832     27833     27834     27835
     27834     27836     27835     27836     27837     27838     27837     27839
     27838     27839     27840     27841     27840     27842     27841     27842
     27843     27844     27843     27845     27844     27845     27846     27847
     27846     27848     27847     27848     27849     27850     27849     27851
     27850     27851     27852     27853     27852     27854     27853     27854
     27855     27856     27855     27857     27856     27857     27858     27859
     27858     27860     27859     27860     27861     27862     27861     27863
     27862     27863     27864     27865     27864     27866     27865     27866
     27867     27868     27867     27869     27868     27869     27870     27871
     27870     27872     27871     27872     27873     27874     27873     27875
     27874     27875     27876     27877     27876     27878     27877     27878
     27879     27880     27879     27881     27880     27881     27882     27883
     27882     27884     27883     27884     27885     27886     27885     27887
     27886     27887     27888     27889     27888     27890     27889     27890
     27891     27892     27891     27893     27892     27893     27894     27895
     27894     27896     27895     27896     27897     27898     27897     27899
     27898     27899     27900     27901     27900     27902     27901     27902
     27903     27904     27903     27905     27904     27905     27906     27907
     27906     27908     27907     27908     27909     27910     27909     27911
     27910     27911     27912     27913     27912     27914     27913     27914
     27915     27916     27915     27917     27916     27917     27918     27919
     27918     27920     27919     27920     27921     27922     27921     27923
     27922     27923     27924     27925     27924     27926     27925     27926
     27927     27928     27927     27929     27928     27929     27930     27931
     27930     27932     27931     27932     27933     27934     27933     27935
     27934     27935     27936     27937     27936     27938     27937     27938
     27939     27940     27939     27941     27940     27941     27942     27943
     27942     27944     27943     27944     27945     27946     27945     27947
     27946     27947     27948     27949     27948     27950     27949     27950
     27951     27952     27951     27953     27952     27953     27954     27955
     27954     27956     27955     27956     27957     27958     27957     27959
     27958     27959     27960     27961     27960     27962     27961     27962
     27963     27964     27963     27965     27964     27965     27966     27967
     27966     27968     27967     27968     27969     27970     27969     27971
     27970     27971     27972     27973     27972     27974     27973     27974
     27975     27976     27975     27977     27976     27977     27978     27979
     27978     27980     27979     27980     27981     27982     27981     27983
     27982     27983     27984     27985     27984     27986     27985     27986
     27987     27988     27987     27989     27988     27989     27990     27991
     27990     27992     27991     27992     27993     27994     27993     27995
     27994     27995     27996     27997     27996     27998     27997     27998
     27999     28000     27999     28001     28000     28001     28002     28003
     28002     28004     28003     28004     28005     28006     28005     28007
     28006     28007     28008     28009     28008     28010     28009     28010
     28011     28012     28011     28013     28012     28013     28014     28015
     28014     28016     28015     28016     28017     28018     28017     28019
     28018     28019     28020     28021     28020     28022     28021     28022
     28023     28024     28023     28025     28024     28025     28026     28027
     28026     28028     28027     28028     28029     28030     28029     28031
     28030     28031     28032     28033     28032     28034     28033     28034
     28035     28036     28035     28037     28036     28037     28038     28039
     28038     28040     28039     28040     28041     28042     28041     28043
     28042     28043     28044     28045     28044     28046     28045     28046
     28047     28048     28047     28049     28048     28049     28050     28051
     28050     28052     28051     28052     28053     28054     28053     28055
     28054     28055     28056     28057     28056     28058     28057     28058
     28059     28060     28059     28061     28060     28061     28062     28063
     28062     28064     28063     28064     28065     28066     28065     28067
     28066     28067     28068     28069     28068     28070     28069     28070
     28071     28072     28071     28073     28072     28073     28074     28075
     28074     28076     28075     28076     28077     28078     28077     28079
     28078     28079     28080     28081     28080     28082     28081     28082
     28083     28084     28083     28085     28084     28085     28086     28087
     28086     28088     28087     28088     28089     28090     28089     28091
     28090     28091     28092     28093     28092     28094     28093     28094
     28095     28096     28095     28097     28096     28097     28098     28099
     28098     28100     28099     28100     28101     28102     28101     28103
     28102     28103     28104     28105     28104     28106     28105     28106
     28107     28108     28107     28109     28108     28109     28110     28111
     28110     28112     28111     28112     28113     28114     28113     28115
     28114     28115     28116     28117     28116     28118     28117     28118
     28119     28120     28119     28121     28120     28121     28122     28123
     28122     28124     28123     28124     28125     28126     28125     28127
     28126     28127     28128     28129     28128     28130     28129     28130
     28131     28132     28131     28133     28132     28133     28134     28135
     28134     28136     28135     28136     28137     28138     28137     28139
     28138     28139     28140     28141     28140     28142     28141     28142
     28143     28144     28143     28145     28144     28145     28146     28147
     28146     28148     28147     28148     28149     28150     28149     28151
     28150     28151     28152     28153     28152     28154     28153     28154
     28155     28156     28155     28157     28156     28157     28158     28159
     28158     28160     28159     28160     28161     28162     28161     28163
     28162     28163     28164     28165     28164     28166     28165     28166
     28167     28168     28167     28169     28168     28169     28170     28171
     28170     28172     28171     28172     28173     28174     28173     28175
     28174     28175     28176     28177     28176     28178     28177     28178
     28179     28180     28179     28181     28180     28181     28182     28183
     28182     28184     28183     28184     28185     28186     28185     28187
     28186     28187     28188     28189     28188     28190     28189     28190
     28191     28192     28191     28193     28192     28193     28194     28195
     28194     28196     28195     28196     28197     28198     28197     28199
     28198     28199     28200     28201     28200     28202     28201     28202
     28203     28204     28203     28205     28204     28205     28206     28207
     28206     28208     28207     28208     28209     28210     28209     28211
     28210     28211     28212     28213     28212     28214     28213     28214
     28215     28216     28215     28217     28216     28217     28218     28219
     28218     28220     28219     28220     28221     28222     28221     28223
     28222     28223     28224     28225     28224     28226     28225     28226
     28227     28228     28227     28229     28228     28229     28230     28231
     28230     28232     28231     28232     28233     28234     28233     28235
     28234     28235     28236     28237     28236     28238     28237     28238
     28239     28240     28239     28241     28240     28241     28242     28243
     28242     28244     28243     28244     28245     28246     28245     28247
     28246     28247     28248     28249     28248     28250     28249     28250
     28251     28252     28251     28253     28252     28253     28254     28255
     28254     28256     28255     28256     28257     28258     28257     28259
     28258     28259     28260     28261     28260     28262     28261     28262
     28263     28264     28263     28265     28264     28265     28266     28267
     28266     28268     28267     28268     28269     28270     28269     28271
     28270     28271     28272     28273     28272     28274     28273     28274
     28275     28276     28275     28277     28276     28277     28278     28279
     28278     28280     28279     28280     28281     28282     28281     28283
     28282     28283     28284     28285     28284     28286     28285     28286
     28287     28288     28287     28289     28288     28289     28290     28291
     28290     28292     28291     28292     28293     28294     28293     28295
     28294     28295     28296     28297     28296     28298     28297     28298
     28299     28300     28299     28301     28300     28301     28302     28303
     28302     28304     28303     28304     28305     28306     28305     28307
     28306     28307     28308     28309     28308     28310     28309     28310
     28311     28312     28311     28313     28312     28313     28314     28315
     28314     28316     28315     28316     28317     28318     28317     28319
     28318     28319     28320     28321     28320     28322     28321     28322
     28323     28324     28323     28325     28324     28325     28326     28327
     28326     28328     28327     28328     28329     28330     28329     28331
     28330     28331     28332     28333     28332     28334     28333     28334
     28335     28336     28335     28337     28336     28337     28338     28339
     28338     28340     28339     28340     28341     28342     28341     28343
     28342     28343     28344     28345     28344     28346     28345     28346
     28347     28348     28347     28349     28348     28349     28350     28351
     28350     28352     28351     28352     28353     28354     28353     28355
     28354     28355     28356     28357     28356     28358     28357     28358
     28359     28360     28359     28361     28360     28361     28362     28363
     28362     28364     28363     28364     28365     28366     28365     28367
     28366     28367     28368     28369     28368     28370     28369     28370
     28371     28372     28371     28373     28372     28373     28374     28375
     28374     28376     28375     28376     28377     28378     28377     28379
     28378     28379     28380     28381     28380     28382     28381     28382
     28383     28384     28383     28385     28384     28385     28386     28387
     28386     28388     28387     28388     28389     28390     28389     28391
     28390     28391     28392     28393     28392     28394     28393     28394
     28395     28396     28395     28397     28396     28397     28398     28399
     28398     28400     28399     28400     28401     28402     28401     28403
     28402     28403     28404     28405     28404     28406     28405     28406
     28407     28408     28407     28409     28408     28409     28410     28411
     28410     28412     28411     28412     28413     28414     28413     28415
     28414     28415     28416     28417     28416     28418     28417     28418
     28419     28420     28419     28421     28420     28421     28422     28423
     28422     28424     28423     28424     28425     28426     28425     28427
     28426     28427     28428     28429     28428     28430     28429     28430
     28431     28432     28431     28433     28432     28433     28434     28435
     28434     28436     28435     28436     28437     28438     28437     28439
     28438     28439     28440     28441     28440     28442     28441     28442
     28443     28444     28443     28445     28444     28445     28446     28447
     28446     28448     28447     28448     28449     28450     28449     28451
     28450     28451     28452     28453     28452     28454     28453     28454
     28455     28456     28455     28457     28456     28457     28458     28459
     28458     28460     28459     28460     28461     28462     28461     28463
     28462     28463     28464     28465     28464     28466     28465     28466
     28467     28468     28467     28469     28468     28469     28470     28471
     28470     28472     28471     28472     28473     28474     28473     28475
     28474     28475     28476     28477     28476     28478     28477     28478
     28479     28480     28479     28481     28480     28481     28482     28483
     28482     28484     28483     28484     28485     28486     28485     28487
     28486     28487     28488     28489     28488     28490     28489     28490
     28491     28492     28491     28493     28492     28493     28494     28495
     28494     28496     28495     28496     28497     28498     28497     28499
     28498     28499     28500     28501     28500     28502     28501     28502
     28503     28504     28503     28505     28504     28505     28506     28507
     28506     28508     28507     28508     28509     28510     28509     28511
     28510     28511     28512     28513     28512     28514     28513     28514
     28515     28516     28515     28517     28516     28517     28518     28519
     28518     28520     28519     28520     28521     28522     28521     28523
     28522     28523     28524     28525     28524     28526     28525     28526
     28527     28528     28527     28529     28528     28529     28530     28531
     28530     28532     28531     28532     28533     28534     28533     28535
     28534     28535     28536     28537     28536     28538     28537     28538
     28539     28540     28539     28541     28540     28541     28542     28543
     28542     28544     28543     28544     28545     28546     28545     28547
     28546     28547     28548     28549     28548     28550     28549     28550
     28551     28552     28551     28553     28552     28553     28554     28555
     28554     28556     28555     28556     28557     28558     28557     28559
     28558     28559     28560     28561     28560     28562     28561     28562
     28563     28564     28563     28565     28564     28565     28566     28567
     28566     28568     28567     28568     28569     28570     28569     28571
     28570     28571     28572     28573     28572     28574     28573     28574
     28575     28576     28575     28577     28576     28577     28578     28579
     28578     28580     28579     28580     28581     28582     28581     28583
     28582     28583     28584     28585     28584     28586     28585     28586
     28587     28588     28587     28589     28588     28589     28590     28591
     28590     28592     28591     28592     28593     28594     28593     28595
     28594     28595     28596     28597     28596     28598     28597     28598
     28599     28600     28599     28601     28600     28601     28602     28603
     28602     28604     28603     28604     28605     28606     28605     28607
     28606     28607     28608     28609     28608     28610     28609     28610
     28611     28612     28611     28613     28612     28613     28614     28615
     28614     28616     28615     28616     28617     28618     28617     28619
     28618     28619     28620     28621     28620     28622     28621     28622
     28623     28624     28623     28625     28624     28625     28626     28627
     28626     28628     28627     28628     28629     28630     28629     28631
     28630     28631     28632     28633     28632     28634     28633     28634
     28635     28636     28635     28637     28636     28637     28638     28639
     28638     28640     28639     28640     28641     28642     28641     28643
     28642     28643     28644     28645     28644     28646     28645     28646
     28647     28648     28647     28649     28648     28649     28650     28651
     28650     28652     28651     28652     28653     28654     28653     28655
     28654     28655     28656     28657     28656     28658     28657     28658
     28659     28660     28659     28661     28660     28661     28662     28663
     28662     28664     28663     28664     28665     28666     28665     28667
     28666     28667     28668     28669     28668     28670     28669     28670
     28671     28672     28671     28673     28672     28673     28674     28675
     28674     28676     28675     28676     28677     28678     28677     28679
     28678     28679     28680     28681     28680     28682     28681     28682
     28683     28684     28683     28685     28684     28685     28686     28687
     28686     28688     28687     28688     28689     28690     28689     28691
     28690     28691     28692     28693     28692     28694     28693     28694
     28695     28696     28695     28697     28696     28697     28698     28699
     28698     28700     28699     28700     28701     28702     28701     28703
     28702     28703     28704     28705     28704     28706     28705     28706
     28707     28708     28707     28709     28708     28709     28710     28711
     28710     28712     28711     28712     28713     28714     28713     28715
     28714     28715     28716     28717     28716     28718     28717     28718
     28719     28720     28719     28721     28720     28721     28722     28723
     28722     28724     28723     28724     28725     28726     28725     28727
     28726     28727     28728     28729     28728     28730     28729     28730
     28731     28732     28731     28733     28732     28733     28734     28735
     28734     28736     28735     28736     28737     28738     28737     28739
     28738     28739     28740     28741     28740     28742     28741     28742
     28743     28744     28743     28745     28744     28745     28746     28747
     28746     28748     28747     28748     28749     28750     28749     28751
     28750     28751     28752     28753     28752     28754     28753     28754
     28755     28756     28755     28757     28756     28757     28758     28759
     28758     28760     28759     28760     28761     28762     28761     28763
     28762     28763     28764     28765     28764     28766     28765     28766
     28767     28768     28767     28769     28768     28769     28770     28771
     28770     28772     28771     28772     28773     28774     28773     28775
     28774     28775     28776     28777     28776     28778     28777     28778
     28779     28780     28779     28781     28780     28781     28782     28783
     28782     28784     28783     28784     28785     28786     28785     28787
     28786     28787     28788     28789     28788     28790     28789     28790
     28791     28792     28791     28793     28792     28793     28794     28795
     28794     28796     28795     28796     28797     28798     28797     28799
     28798     28799     28800     28801     28800     28802     28801     28802
     28803     28804     28803     28805     28804     28805     28806     28807
     28806     28808     28807     28808     28809     28810     28809     28811
     28810     28811     28812     28813     28812     28814     28813     28814
     28815     28816     28815     28817     28816     28817     28818     28819
     28818     28820     28819     28820     28821     28822     28821     28823
     28822     28823     28824     28825     28824     28826     28825     28826
     28827     28828     28827     28829     28828     28829     28830     28831
     28830     28832     28831     28832     28833     28834     28833     28835
     28834     28835     28836     28837     28836     28838     28837     28838
     28839     28840     28839     28841     28840     28841     28842     28843
     28842     28844     28843     28844     28845     28846     28845     28847
     28846     28847     28848     28849     28848     28850     28849     28850
     28851     28852     28851     28853     28852     28853     28854     28855
     28854     28856     28855     28856     28857     28858     28857     28859
     28858     28859     28860     28861     28860     28862     28861     28862
     28863     28864     28863     28865     28864     28865     28866     28867
     28866     28868     28867     28868     28869     28870     28869     28871
     28870     28871     28872     28873     28872     28874     28873     28874
     28875     28876     28875     28877     28876     28877     28878     28879
     28878     28880     28879     28880     28881     28882     28881     28883
     28882     28883     28884     28885     28884     28886     28885     28886
     28887     28888     28887     28889     28888     28889     28890     28891
     28890     28892     28891     28892     28893     28894     28893     28895
     28894     28895     28896     28897     28896     28898     28897     28898
     28899     28900     28899     28901     28900     28901     28902     28903
     28902     28904     28903     28904     28905     28906     28905     28907
     28906     28907     28908     28909     28908     28910     28909     28910
     28911     28912     28911     28913     28912     28913     28914     28915
     28914     28916     28915     28916     28917     28918     28917     28919
     28918     28919     28920     28921     28920     28922     28921     28922
     28923     28924     28923     28925     28924     28925     28926     28927
     28926     28928     28927     28928     28929     28930     28929     28931
     28930     28931     28932     28933     28932     28934     28933     28934
     28935     28936     28935     28937     28936     28937     28938     28939
     28938     28940     28939     28940     28941     28942     28941     28943
     28942     28943     28944     28945     28944     28946     28945     28946
     28947     28948     28947     28949     28948     28949     28950     28951
     28950     28952     28951     28952     28953     28954     28953     28955
     28954     28955     28956     28957     28956     28958     28957     28958
     28959     28960     28959     28961     28960     28961     28962     28963
     28962     28964     28963     28964     28965     28966     28965     28967
     28966     28967     28968     28969     28968     28970     28969     28970
     28971     28972     28971     28973     28972     28973     28974     28975
     28974     28976     28975     28976     28977     28978     28977     28979
     28978     28979     28980     28981     28980     28982     28981     28982
     28983     28984     28983     28985     28984     28985     28986     28987
     28986     28988     28987     28988     28989     28990     28989     28991
     28990     28991     28992     28993     28992     28994     28993     28994
     28995     28996     28995     28997     28996     28997     28998     28999
     28998     29000     28999     29000     29001     29002     29001     29003
     29002     29003     29004     29005     29004     29006     29005     29006
     29007     29008     29007     29009     29008     29009     29010     29011
     29010     29012     29011     29012     29013     29014     29013     29015
     29014     29015     29016     29017     29016     29018     29017     29018
     29019     29020     29019     29021     29020     29021     29022     29023
     29022     29024     29023     29024     29025     29026     29025     29027
     29026     29027     29028     29029     29028     29030     29029     29030
     29031     29032     29031     29033     29032     29033     29034     29035
     29034     29036     29035     29036     29037     29038     29037     29039
     29038     29039     29040     29041     29040     29042     29041     29042
     29043     29044     29043     29045     29044     29045     29046     29047
     29046     29048     29047     29048     29049     29050     29049     29051
     29050     29051     29052     29053     29052     29054     29053     29054
     29055     29056     29055     29057     29056     29057     29058     29059
     29058     29060     29059     29060     29061     29062     29061     29063
     29062     29063     29064     29065     29064     29066     29065     29066
     29067     29068     29067     29069     29068     29069     29070     29071
     29070     29072     29071     29072     29073     29074     29073     29075
     29074     29075     29076     29077     29076     29078     29077     29078
     29079     29080     29079     29081     29080     29081     29082     29083
     29082     29084     29083     29084     29085     29086     29085     29087
     29086     29087     29088     29089     29088     29090     29089     29090
     29091     29092     29091     29093     29092     29093     29094     29095
     29094     29096     29095     29096     29097     29098     29097     29099
     29098     29099     29100     29101     29100     29102     29101     29102
     29103     29104     29103     29105     29104     29105     29106     29107
     29106     29108     29107     29108     29109     29110     29109     29111
     29110     29111     29112     29113     29112     29114     29113     29114
     29115     29116     29115     29117     29116     29117     29118     29119
     29118     29120     29119     29120     29121     29122     29121     29123
     29122     29123     29124     29125     29124     29126     29125     29126
     29127     29128     29127     29129     29128     29129     29130     29131
     29130     29132     29131     29132     29133     29134     29133     29135
     29134     29135     29136     29137     29136     29138     29137     29138
     29139     29140     29139     29141     29140     29141     29142     29143
     29142     29144     29143     29144     29145     29146     29145     29147
     29146     29147     29148     29149     29148     29150     29149     29150
     29151     29152     29151     29153     29152     29153     29154     29155
     29154     29156     29155     29156     29157     29158     29157     29159
     29158     29159     29160     29161     29160     29162     29161     29162
     29163     29164     29163     29165     29164     29165     29166     29167
     29166     29168     29167     29168     29169     29170     29169     29171
     29170     29171     29172     29173     29172     29174     29173     29174
     29175     29176     29175     29177     29176     29177     29178     29179
     29178     29180     29179     29180     29181     29182     29181     29183
     29182     29183     29184     29185     29184     29186     29185     29186
     29187     29188     29187     29189     29188     29189     29190     29191
     29190     29192     29191     29192     29193     29194     29193     29195
     29194     29195     29196     29197     29196     29198     29197     29198
     29199     29200     29199     29201     29200     29201     29202     29203
     29202     29204     29203     29204     29205     29206     29205     29207
     29206     29207     29208     29209     29208     29210     29209     29210
     29211     29212     29211     29213     29212     29213     29214     29215
     29214     29216     29215     29216     29217     29218     29217     29219
     29218     29219     29220     29221     29220     29222     29221     29222
     29223     29224     29223     29225     29224     29225     29226     29227
     29226     29228     29227     29228     29229     29230     29229     29231
     29230     29231     29232     29233     29232     29234     29233     29234
     29235     29236     29235     29237     29236     29237     29238     29239
     29238     29240     29239     29240     29241     29242     29241     29243
     29242     29243     29244     29245     29244     29246     29245     29246
     29247     29248     29247     29249     29248     29249     29250     29251
     29250     29252     29251     29252     29253     29254     29253     29255
     29254     29255     29256     29257     29256     29258     29257     29258
     29259     29260     29259     29261     29260     29261     29262     29263
     29262     29264     29263     29264     29265     29266     29265     29267
     29266     29267     29268     29269     29268     29270     29269     29270
     29271     29272     29271     29273     29272     29273     29274     29275
     29274     29276     29275     29276     29277     29278     29277     29279
     29278     29279     29280     29281     29280     29282     29281     29282
     29283     29284     29283     29285     29284     29285     29286     29287
     29286     29288     29287     29288     29289     29290     29289     29291
     29290     29291     29292     29293     29292     29294     29293     29294
     29295     29296     29295     29297     29296     29297     29298     29299
     29298     29300     29299     29300     29301     29302     29301     29303
     29302     29303     29304     29305     29304     29306     29305     29306
     29307     29308     29307     29309     29308     29309     29310     29311
     29310     29312     29311     29312     29313     29314     29313     29315
     29314     29315     29316     29317     29316     29318     29317     29318
     29319     29320     29319     29321     29320     29321     29322     29323
     29322     29324     29323     29324     29325     29326     29325     29327
     29326     29327     29328     29329     29328     29330     29329     29330
     29331     29332     29331     29333     29332     29333     29334     29335
     29334     29336     29335     29336     29337     29338     29337     29339
     29338     29339     29340     29341     29340     29342     29341     29342
     29343     29344     29343     29345     29344     29345     29346     29347
     29346     29348     29347     29348     29349     29350     29349     29351
     29350     29351     29352     29353     29352     29354     29353     29354
     29355     29356     29355     29357     29356     29357     29358     29359
     29358     29360     29359     29360     29361     29362     29361     29363
     29362     29363     29364     29365     29364     29366     29365     29366
     29367     29368     29367     29369     29368     29369     29370     29371
     29370     29372     29371     29372     29373     29374     29373     29375
     29374     29375     29376     29377     29376     29378     29377     29378
     29379     29380     29379     29381     29380     29381     29382     29383
     29382     29384     29383     29384     29385     29386     29385     29387
     29386     29387     29388     29389     29388     29390     29389     29390
     29391     29392     29391     29393     29392     29393     29394     29395
     29394     29396     29395     29396     29397     29398     29397     29399
     29398     29399     29400     29401     29400     29402     29401     29402
     29403     29404     29403     29405     29404     29405     29406     29407
     29406     29408     29407     29408     29409     29410     29409     29411
     29410     29411     29412     29413     29412     29414     29413     29414
     29415     29416     29415     29417     29416     29417     29418     29419
     29418     29420     29419     29420     29421     29422     29421     29423
     29422     29423     29424     29425     29424     29426     29425     29426
     29427     29428     29427     29429     29428     29429     29430     29431
     29430     29432     29431     29432     29433     29434     29433     29435
     29434     29435     29436     29437     29436     29438     29437     29438
     29439     29440     29439     29441     29440     29441     29442     29443
     29442     29444     29443     29444     29445     29446     29445     29447
     29446     29447     29448     29449     29448     29450     29449     29450
     29451     29452     29451     29453     29452     29453     29454     29455
     29454     29456     29455     29456     29457     29458     29457     29459
     29458     29459     29460     29461     29460     29462     29461     29462
     29463     29464     29463     29465     29464     29465     29466     29467
     29466     29468     29467     29468     29469     29470     29469     29471
     29470     29471     29472     29473     29472     29474     29473     29474
     29475     29476     29475     29477     29476     29477     29478     29479
     29478     29480     29479     29480     29481     29482     29481     29483
     29482     29483     29484     29485     29484     29486     29485     29486
     29487     29488     29487     29489     29488     29489     29490     29491
     29490     29492     29491     29492     29493     29494     29493     29495
     29494     29495     29496     29497     29496     29498     29497     29498
     29499     29500     29499     29501     29500     29501     29502     29503
     29502     29504     29503     29504     29505     29506     29505     29507
     29506     29507     29508     29509     29508     29510     29509     29510
     29511     29512     29511     29513     29512     29513     29514     29515
     29514     29516     29515     29516     29517     29518     29517     29519
     29518     29519     29520     29521     29520     29522     29521     29522
     29523     29524     29523     29525     29524     29525     29526     29527
     29526     29528     29527     29528     29529     29530     29529     29531
     29530     29531     29532     29533     29532     29534     29533     29534
     29535     29536     29535     29537     29536     29537     29538     29539
     29538     29540     29539     29540     29541     29542     29541     29543
     29542     29543     29544     29545     29544     29546     29545     29546
     29547     29548     29547     29549     29548     29549     29550     29551
     29550     29552     29551     29552     29553     29554     29553     29555
     29554     29555     29556     29557     29556     29558     29557     29558
     29559     29560     29559     29561     29560     29561     29562     29563
     29562     29564     29563     29564     29565     29566     29565     29567
     29566     29567     29568     29569     29568     29570     29569     29570
     29571     29572     29571     29573     29572     29573     29574     29575
     29574     29576     29575     29576     29577     29578     29577     29579
     29578     29579     29580     29581     29580     29582     29581     29582
     29583     29584     29583     29585     29584     29585     29586     29587
     29586     29588     29587     29588     29589     29590     29589     29591
     29590     29591     29592     29593     29592     29594     29593     29594
     29595     29596     29595     29597     29596     29597     29598     29599
     29598     29600     29599     29600     29601     29602     29601     29603
     29602     29603     29604     29605     29604     29606     29605     29606
     29607     29608     29607     29609     29608     29609     29610     29611
     29610     29612     29611     29612     29613     29614     29613     29615
     29614     29615     29616     29617     29616     29618     29617     29618
     29619     29620     29619     29621     29620     29621     29622     29623
     29622     29624     29623     29624     29625     29626     29625     29627
     29626     29627     29628     29629     29628     29630     29629     29630
     29631     29632     29631     29633     29632     29633     29634     29635
     29634     29636     29635     29636     29637     29638     29637     29639
     29638     29639     29640     29641     29640     29642     29641     29642
     29643     29644     29643     29645     29644     29645     29646     29647
     29646     29648     29647     29648     29649     29650     29649     29651
     29650     29651     29652     29653     29652     29654     29653     29654
     29655     29656     29655     29657     29656     29657     29658     29659
     29658     29660     29659     29660     29661     29662     29661     29663
     29662     29663     29664     29665     29664     29666     29665     29666
     29667     29668     29667     29669     29668     29669     29670     29671
     29670     29672     29671     29672     29673     29674     29673     29675
     29674     29675     29676     29677     29676     29678     29677     29678
     29679     29680     29679     29681     29680     29681     29682     29683
     29682     29684     29683     29684     29685     29686     29685     29687
     29686     29687     29688     29689     29688     29690     29689     29690
     29691     29692     29691     29693     29692     29693     29694     29695
     29694     29696     29695     29696     29697     29698     29697     29699
     29698     29699     29700     29701     29700     29702     29701     29702
     29703     29704     29703     29705     29704     29705     29706     29707
     29706     29708     29707     29708     29709     29710     29709     29711
     29710     29711     29712     29713     29712     29714     29713     29714
     29715     29716     29715     29717     29716     29717     29718     29719
     29718     29720     29719     29720     29721     29722     29721     29723
     29722     29723     29724     29725     29724     29726     29725     29726
     29727     29728     29727     29729     29728     29729     29730     29731
     29730     29732     29731     29732     29733     29734     29733     29735
     29734     29735     29736     29737     29736     29738     29737     29738
     29739     29740     29739     29741     29740     29741     29742     29743
     29742     29744     29743     29744     29745     29746     29745     29747
     29746     29747     29748     29749     29748     29750     29749     29750
     29751     29752     29751     29753     29752     29753     29754     29755
     29754     29756     29755     29756     29757     29758     29757     29759
     29758     29759     29760     29761     29760     29762     29761     29762
     29763     29764     29763     29765     29764     29765     29766     29767
     29766     29768     29767     29768     29769     29770     29769     29771
     29770     29771     29772     29773     29772     29774     29773     29774
     29775     29776     29775     29777     29776     29777     29778     29779
     29778     29780     29779     29780     29781     29782     29781     29783
     29782     29783     29784     29785     29784     29786     29785     29786
     29787     29788     29787     29789     29788     29789     29790     29791
     29790     29792     29791     29792     29793     29794     29793     29795
     29794     29795     29796     29797     29796     29798     29797     29798
     29799     29800     29799     29801     29800     29801     29802     29803
     29802     29804     29803     29804     29805     29806     29805     29807
     29806     29807     29808     29809     29808     29810     29809     29810
     29811     29812     29811     29813     29812     29813     29814     29815
     29814     29816     29815     29816     29817     29818     29817     29819
     29818     29819     29820     29821     29820     29822     29821     29822
     29823     29824     29823     29825     29824     29825     29826     29827
     29826     29828     29827     29828     29829     29830     29829     29831
     29830     29831     29832     29833     29832     29834     29833     29834
     29835     29836     29835     29837     29836     29837     29838     29839
     29838     29840     29839     29840     29841     29842     29841     29843
     29842     29843     29844     29845     29844     29846     29845     29846
     29847     29848     29847     29849     29848     29849     29850     29851
     29850     29852     29851     29852     29853     29854     29853     29855
     29854     29855     29856     29857     29856     29858     29857     29858
     29859     29860     29859     29861     29860     29861     29862     29863
     29862     29864     29863     29864     29865     29866     29865     29867
     29866     29867     29868     29869     29868     29870     29869     29870
     29871     29872     29871     29873     29872     29873     29874     29875
     29874     29876     29875     29876     29877     29878     29877     29879
     29878     29879     29880     29881     29880     29882     29881     29882
     29883     29884     29883     29885     29884     29885     29886     29887
     29886     29888     29887     29888     29889     29890     29889     29891
     29890     29891     29892     29893     29892     29894     29893     29894
     29895     29896     29895     29897     29896     29897     29898     29899
     29898     29900     29899     29900     29901     29902     29901     29903
     29902     29903     29904     29905     29904     29906     29905     29906
     29907     29908     29907     29909     29908     29909     29910     29911
     29910     29912     29911     29912     29913     29914     29913     29915
     29914     29915     29916     29917     29916     29918     29917     29918
     29919     29920     29919     29921     29920     29921     29922     29923
     29922     29924     29923     29924     29925     29926     29925     29927
     29926     29927     29928     29929     29928     29930     29929     29930
     29931     29932     29931     29933     29932     29933     29934     29935
     29934     29936     29935     29936     29937     29938     29937     29939
     29938     29939     29940     29941     29940     29942     29941     29942
     29943     29944     29943     29945     29944     29945     29946     29947
     29946     29948     29947     29948     29949     29950     29949     29951
     29950     29951     29952     29953     29952     29954     29953     29954
     29955     29956     29955     29957     29956     29957     29958     29959
     29958     29960     29959     29960     29961     29962     29961     29963
     29962     29963     29964     29965     29964     29966     29965     29966
     29967     29968     29967     29969     29968     29969     29970     29971
     29970     29972     29971     29972     29973     29974     29973     29975
     29974     29975     29976     29977     29976     29978     29977     29978
     29979     29980     29979     29981     29980     29981     29982     29983
     29982     29984     29983     29984     29985     29986     29985     29987
     29986     29987     29988     29989     29988     29990     29989     29990
     29991     29992     29991     29993     29992     29993     29994     29995
     29994     29996     29995     29996     29997     29998     29997     29999
     29998     29999     30000     30001     30000     30002     30001     30002
     30003     30004     30003     30005     30004     30005     30006     30007
     30006     30008     30007     30008     30009     30010     30009     30011
     30010     30011     30012     30013     30012     30014     30013     30014
     30015     30016     30015     30017     30016     30017     30018     30019
     30018     30020     30019     30020     30021     30022     30021     30023
     30022     30023     30024     30025     30024     30026     30025     30026
     30027     30028     30027     30029     30028     30029     30030     30031
     30030     30032     30031     30032     30033     30034     30033     30035
     30034     30035     30036     30037     30036     30038     30037     30038
     30039     30040     30039     30041     30040     30041     30042     30043
     30042     30044     30043     30044     30045     30046     30045     30047
     30046     30047     30048     30049     30048     30050     30049     30050
     30051     30052     30051     30053     30052     30053     30054     30055
     30054     30056     30055     30056     30057     30058     30057     30059
     30058     30059     30060     30061     30060     30062     30061     30062
     30063     30064     30063     30065     30064     30065     30066     30067
     30066     30068     30067     30068     30069     30070     30069     30071
     30070     30071     30072     30073     30072     30074     30073     30074
     30075     30076     30075     30077     30076     30077     30078     30079
     30078     30080     30079     30080     30081     30082     30081     30083
     30082     30083     30084     30085     30084     30086     30085     30086
     30087     30088     30087     30089     30088     30089     30090     30091
     30090     30092     30091     30092     30093     30094     30093     30095
     30094     30095     30096     30097     30096     30098     30097     30098
     30099     30100     30099     30101     30100     30101     30102     30103
     30102     30104     30103     30104     30105     30106     30105     30107
     30106     30107     30108     30109     30108     30110     30109     30110
     30111     30112     30111     30113     30112     30113     30114     30115
     30114     30116     30115     30116     30117     30118     30117     30119
     30118     30119     30120     30121     30120     30122     30121     30122
     30123     30124     30123     30125     30124     30125     30126     30127
     30126     30128     30127     30128     30129     30130     30129     30131
     30130     30131     30132     30133     30132     30134     30133     30134
     30135     30136     30135     30137     30136     30137     30138     30139
     30138     30140     30139     30140     30141     30142     30141     30143
     30142     30143     30144     30145     30144     30146     30145     30146
     30147     30148     30147     30149     30148     30149     30150     30151
     30150     30152     30151     30152     30153     30154     30153     30155
     30154     30155     30156     30157     30156     30158     30157     30158
     30159     30160     30159     30161     30160     30161     30162     30163
     30162     30164     30163     30164     30165     30166     30165     30167
     30166     30167     30168     30169     30168     30170     30169     30170
     30171     30172     30171     30173     30172     30173     30174     30175
     30174     30176     30175     30176     30177     30178     30177     30179
     30178     30179     30180     30181     30180     30182     30181     30182
     30183     30184     30183     30185     30184     30185     30186     30187
     30186     30188     30187     30188     30189     30190     30189     30191
     30190     30191     30192     30193     30192     30194     30193     30194
     30195     30196     30195     30197     30196     30197     30198     30199
     30198     30200     30199     30200     30201     30202     30201     30203
     30202     30203     30204     30205     30204     30206     30205     30206
     30207     30208     30207     30209     30208     30209     30210     30211
     30210     30212     30211     30212     30213     30214     30213     30215
     30214     30215     30216     30217     30216     30218     30217     30218
     30219     30220     30219     30221     30220     30221     30222     30223
     30222     30224     30223     30224     30225     30226     30225     30227
     30226     30227     30228     30229     30228     30230     30229     30230
     30231     30232     30231     30233     30232     30233     30234     30235
     30234     30236     30235     30236     30237     30238     30237     30239
     30238     30239     30240     30241     30240     30242     30241     30242
     30243     30244     30243     30245     30244     30245     30246     30247
     30246     30248     30247     30248     30249     30250     30249     30251
     30250     30251     30252     30253     30252     30254     30253     30254
     30255     30256     30255     30257     30256     30257     30258     30259
     30258     30260     30259     30260     30261     30262     30261     30263
     30262     30263     30264     30265     30264     30266     30265     30266
     30267     30268     30267     30269     30268     30269     30270     30271
     30270     30272     30271     30272     30273     30274     30273     30275
     30274     30275     30276     30277     30276     30278     30277     30278
     30279     30280     30279     30281     30280     30281     30282     30283
     30282     30284     30283     30284     30285     30286     30285     30287
     30286     30287     30288     30289     30288     30290     30289     30290
     30291     30292     30291     30293     30292     30293     30294     30295
     30294     30296     30295     30296     30297     30298     30297     30299
     30298     30299     30300     30301     30300     30302     30301     30302
     30303     30304     30303     30305     30304     30305     30306     30307
     30306     30308     30307     30308     30309     30310     30309     30311
     30310     30311     30312     30313     30312     30314     30313     30314
     30315     30316     30315     30317     30316     30317     30318     30319
     30318     30320     30319     30320     30321     30322     30321     30323
     30322     30323     30324     30325     30324     30326     30325     30326
     30327     30328     30327     30329     30328     30329     30330     30331
     30330     30332     30331     30332     30333     30334     30333     30335
     30334     30335     30336     30337     30336     30338     30337     30338
     30339     30340     30339     30341     30340     30341     30342     30343
     30342     30344     30343     30344     30345     30346     30345     30347
     30346     30347     30348     30349     30348     30350     30349     30350
     30351     30352     30351     30353     30352     30353     30354     30355
     30354     30356     30355     30356     30357     30358     30357     30359
     30358     30359     30360     30361     30360     30362     30361     30362
     30363     30364     30363     30365     30364     30365     30366     30367
     30366     30368     30367     30368     30369     30370     30369     30371
     30370     30371     30372     30373     30372     30374     30373     30374
     30375     30376     30375     30377     30376     30377     30378     30379
     30378     30380     30379     30380     30381     30382     30381     30383
     30382     30383     30384     30385     30384     30386     30385     30386
     30387     30388     30387     30389     30388     30389     30390     30391
     30390     30392     30391     30392     30393     30394     30393     30395
     30394     30395     30396     30397     30396     30398     30397     30398
     30399     30400     30399     30401     30400     30401     30402     30403
     30402     30404     30403     30404     30405     30406     30405     30407
     30406     30407     30408     30409     30408     30410     30409     30410
     30411     30412     30411     30413     30412     30413     30414     30415
     30414     30416     30415     30416     30417     30418     30417     30419
     30418     30419     30420     30421     30420     30422     30421     30422
     30423     30424     30423     30425     30424     30425     30426     30427
     30426     30428     30427     30428     30429     30430     30429     30431
     30430     30431     30432     30433     30432     30434     30433     30434
     30435     30436     30435     30437     30436     30437     30438     30439
     30438     30440     30439     30440     30441     30442     30441     30443
     30442     30443     30444     30445     30444     30446     30445     30446
     30447     30448     30447     30449     30448     30449     30450     30451
     30450     30452     30451     30452     30453     30454     30453     30455
     30454     30455     30456     30457     30456     30458     30457     30458
     30459     30460     30459     30461     30460     30461     30462     30463
     30462     30464     30463     30464     30465     30466     30465     30467
     30466     30467     30468     30469     30468     30470     30469     30470
     30471     30472     30471     30473     30472     30473     30474     30475
     30474     30476     30475     30476     30477     30478     30477     30479
     30478     30479     30480     30481     30480     30482     30481     30482
     30483     30484     30483     30485     30484     30485     30486     30487
     30486     30488     30487     30488     30489     30490     30489     30491
     30490     30491     30492     30493     30492     30494     30493     30494
     30495     30496     30495     30497     30496     30497     30498     30499
     30498     30500     30499     30500     30501     30502     30501     30503
     30502     30503     30504     30505     30504     30506     30505     30506
     30507     30508     30507     30509     30508     30509     30510     30511
     30510     30512     30511     30512     30513     30514     30513     30515
     30514     30515     30516     30517     30516     30518     30517     30518
     30519     30520     30519     30521     30520     30521     30522     30523
     30522     30524     30523     30524     30525     30526     30525     30527
     30526     30527     30528     30529     30528     30530     30529     30530
     30531     30532     30531     30533     30532     30533     30534     30535
     30534     30536     30535     30536     30537     30538     30537     30539
     30538     30539     30540     30541     30540     30542     30541     30542
     30543     30544     30543     30545     30544     30545     30546     30547
     30546     30548     30547     30548     30549     30550     30549     30551
     30550     30551     30552     30553     30552     30554     30553     30554
     30555     30556     30555     30557     30556     30557     30558     30559
     30558     30560     30559     30560     30561     30562     30561     30563
     30562     30563     30564     30565     30564     30566     30565     30566
     30567     30568     30567     30569     30568     30569     30570     30571
     30570     30572     30571     30572     30573     30574     30573     30575
     30574     30575     30576     30577     30576     30578     30577     30578
     30579     30580     30579     30581     30580     30581     30582     30583
     30582     30584     30583     30584     30585     30586     30585     30587
     30586     30587     30588     30589     30588     30590     30589     30590
     30591     30592     30591     30593     30592     30593     30594     30595
     30594     30596     30595     30596     30597     30598     30597     30599
     30598     30599     30600     30601     30600     30602     30601     30602
     30603     30604     30603     30605     30604     30605     30606     30607
     30606     30608     30607     30608     30609     30610     30609     30611
     30610     30611     30612     30613     30612     30614     30613     30614
     30615     30616     30615     30617     30616     30617     30618     30619
     30618     30620     30619     30620     30621     30622     30621     30623
     30622     30623     30624     30625     30624     30626     30625     30626
     30627     30628     30627     30629     30628     30629     30630     30631
     30630     30632     30631     30632     30633     30634     30633     30635
     30634     30635     30636     30637     30636     30638     30637     30638
     30639     30640     30639     30641     30640     30641     30642     30643
     30642     30644     30643     30644     30645     30646     30645     30647
     30646     30647     30648     30649     30648     30650     30649     30650
     30651     30652     30651     30653     30652     30653     30654     30655
     30654     30656     30655     30656     30657     30658     30657     30659
     30658     30659     30660     30661     30660     30662     30661     30662
     30663     30664     30663     30665     30664     30665     30666     30667
     30666     30668     30667     30668     30669     30670     30669     30671
     30670     30671     30672     30673     30672     30674     30673     30674
     30675     30676     30675     30677     30676     30677     30678     30679
     30678     30680     30679     30680     30681     30682     30681     30683
     30682     30683     30684     30685     30684     30686     30685     30686
     30687     30688     30687     30689     30688     30689     30690     30691
     30690     30692     30691     30692     30693     30694     30693     30695
     30694     30695     30696     30697     30696     30698     30697     30698
     30699     30700     30699     30701     30700     30701     30702     30703
     30702     30704     30703     30704     30705     30706     30705     30707
     30706     30707     30708     30709     30708     30710     30709     30710
     30711     30712     30711     30713     30712     30713     30714     30715
     30714     30716     30715     30716     30717     30718     30717     30719
     30718     30719     30720     30721     30720     30722     30721     30722
     30723     30724     30723     30725     30724     30725     30726     30727
     30726     30728     30727     30728     30729     30730     30729     30731
     30730     30731     30732     30733     30732     30734     30733     30734
     30735     30736     30735     30737     30736     30737     30738     30739
     30738     30740     30739     30740     30741     30742     30741     30743
     30742     30743     30744     30745     30744     30746     30745     30746
     30747     30748     30747     30749     30748     30749     30750     30751
     30750     30752     30751     30752     30753     30754     30753     30755
     30754     30755     30756     30757     30756     30758     30757     30758
     30759     30760     30759     30761     30760     30761     30762     30763
     30762     30764     30763     30764     30765     30766     30765     30767
     30766     30767     30768     30769     30768     30770     30769     30770
     30771     30772     30771     30773     30772     30773     30774     30775
     30774     30776     30775     30776     30777     30778     30777     30779
     30778     30779     30780     30781     30780     30782     30781     30782
     30783     30784     30783     30785     30784     30785     30786     30787
     30786     30788     30787     30788     30789     30790     30789     30791
     30790     30791     30792     30793     30792     30794     30793     30794
     30795     30796     30795     30797     30796     30797     30798     30799
     30798     30800     30799     30800     30801     30802     30801     30803
     30802     30803     30804     30805     30804     30806     30805     30806
     30807     30808     30807     30809     30808     30809     30810     30811
     30810     30812     30811     30812     30813     30814     30813     30815
     30814     30815     30816     30817     30816     30818     30817     30818
     30819     30820     30819     30821     30820     30821     30822     30823
     30822     30824     30823     30824     30825     30826     30825     30827
     30826     30827     30828     30829     30828     30830     30829     30830
     30831     30832     30831     30833     30832     30833     30834     30835
     30834     30836     30835     30836     30837     30838     30837     30839
     30838     30839     30840     30841     30840     30842     30841     30842
     30843     30844     30843     30845     30844     30845     30846     30847
     30846     30848     30847     30848     30849     30850     30849     30851
     30850     30851     30852     30853     30852     30854     30853     30854
     30855     30856     30855     30857     30856     30857     30858     30859
     30858     30860     30859     30860     30861     30862     30861     30863
     30862     30863     30864     30865     30864     30866     30865     30866
     30867     30868     30867     30869     30868     30869     30870     30871
     30870     30872     30871     30872     30873     30874     30873     30875
     30874     30875     30876     30877     30876     30878     30877     30878
     30879     30880     30879     30881     30880     30881     30882     30883
     30882     30884     30883     30884     30885     30886     30885     30887
     30886     30887     30888     30889     30888     30890     30889     30890
     30891     30892     30891     30893     30892     30893     30894     30895
     30894     30896     30895     30896     30897     30898     30897     30899
     30898     30899     30900     30901     30900     30902     30901     30902
     30903     30904     30903     30905     30904     30905     30906     30907
     30906     30908     30907     30908     30909     30910     30909     30911
     30910     30911     30912     30913     30912     30914     30913     30914
     30915     30916     30915     30917     30916     30917     30918     30919
     30918     30920     30919     30920     30921     30922     30921     30923
     30922     30923     30924     30925     30924     30926     30925     30926
     30927     30928     30927     30929     30928     30929     30930     30931
     30930     30932     30931     30932     30933     30934     30933     30935
     30934     30935     30936     30937     30936     30938     30937     30938
     30939     30940     30939     30941     30940     30941     30942     30943
     30942     30944     30943     30944     30945     30946     30945     30947
     30946     30947     30948     30949     30948     30950     30949     30950
     30951     30952     30951     30953     30952     30953     30954     30955
     30954     30956     30955     30956     30957     30958     30957     30959
     30958     30959     30960     30961     30960     30962     30961     30962
     30963     30964     30963     30965     30964     30965     30966     30967
     30966     30968     30967     30968     30969     30970     30969     30971
     30970     30971     30972     30973     30972     30974     30973     30974
     30975     30976     30975     30977     30976     30977     30978     30979
     30978     30980     30979     30980     30981     30982     30981     30983
     30982     30983     30984     30985     30984     30986     30985     30986
     30987     30988     30987     30989     30988     30989     30990     30991
     30990     30992     30991     30992     30993     30994     30993     30995
     30994     30995     30996     30997     30996     30998     30997     30998
     30999     31000     30999     31001     31000     31001     31002     31003
     31002     31004     31003     31004     31005     31006     31005     31007
     31006     31007     31008     31009     31008     31010     31009     31010
     31011     31012     31011     31013     31012     31013     31014     31015
     31014     31016     31015     31016     31017     31018     31017     31019
     31018     31019     31020     31021     31020     31022     31021     31022
     31023     31024     31023     31025     31024     31025     31026     31027
     31026     31028     31027     31028     31029     31030     31029     31031
     31030     31031     31032     31033     31032     31034     31033     31034
     31035     31036     31035     31037     31036     31037     31038     31039
     31038     31040     31039     31040     31041     31042     31041     31043
     31042     31043     31044     31045     31044     31046     31045     31046
     31047     31048     31047     31049     31048     31049     31050     31051
     31050     31052     31051     31052     31053     31054     31053     31055
     31054     31055     31056     31057     31056     31058     31057     31058
     31059     31060     31059     31061     31060     31061     31062     31063
     31062     31064     31063     31064     31065     31066     31065     31067
     31066     31067     31068     31069     31068     31070     31069     31070
     31071     31072     31071     31073     31072     31073     31074     31075
     31074     31076     31075     31076     31077     31078     31077     31079
     31078     31079     31080     31081     31080     31082     31081     31082
     31083     31084     31083     31085     31084     31085     31086     31087
     31086     31088     31087     31088     31089     31090     31089     31091
     31090     31091     31092     31093     31092     31094     31093     31094
     31095     31096     31095     31097     31096     31097     31098     31099
     31098     31100     31099     31100     31101     31102     31101     31103
     31102     31103     31104     31105     31104     31106     31105     31106
     31107     31108     31107     31109     31108     31109     31110     31111
     31110     31112     31111     31112     31113     31114     31113     31115
     31114     31115     31116     31117     31116     31118     31117     31118
     31119     31120     31119     31121     31120     31121     31122     31123
     31122     31124     31123     31124     31125     31126     31125     31127
     31126     31127     31128     31129     31128     31130     31129     31130
     31131     31132     31131     31133     31132     31133     31134     31135
     31134     31136     31135     31136     31137     31138     31137     31139
     31138     31139     31140     31141     31140     31142     31141     31142
     31143     31144     31143     31145     31144     31145     31146     31147
     31146     31148     31147     31148     31149     31150     31149     31151
     31150     31151     31152     31153     31152     31154     31153     31154
     31155     31156     31155     31157     31156     31157     31158     31159
     31158     31160     31159     31160     31161     31162     31161     31163
     31162     31163     31164     31165     31164     31166     31165     31166
     31167     31168     31167     31169     31168     31169     31170     31171
     31170     31172     31171     31172     31173     31174     31173     31175
     31174     31175     31176     31177     31176     31178     31177     31178
     31179     31180     31179     31181     31180     31181     31182     31183
     31182     31184     31183     31184     31185     31186     31185     31187
     31186     31187     31188     31189     31188     31190     31189     31190
     31191     31192     31191     31193     31192     31193     31194     31195
     31194     31196     31195     31196     31197     31198     31197     31199
     31198     31199     31200     31201     31200     31202     31201     31202
     31203     31204     31203     31205     31204     31205     31206     31207
     31206     31208     31207     31208     31209     31210     31209     31211
     31210     31211     31212     31213     31212     31214     31213     31214
     31215     31216     31215     31217     31216     31217     31218     31219
     31218     31220     31219     31220     31221     31222     31221     31223
     31222     31223     31224     31225     31224     31226     31225     31226
     31227     31228     31227     31229     31228     31229     31230     31231
     31230     31232     31231     31232     31233     31234     31233     31235
     31234     31235     31236     31237     31236     31238     31237     31238
     31239     31240     31239     31241     31240     31241     31242     31243
     31242     31244     31243     31244     31245     31246     31245     31247
     31246     31247     31248     31249     31248     31250     31249     31250
     31251     31252     31251     31253     31252     31253     31254     31255
     31254     31256     31255     31256     31257     31258     31257     31259
     31258     31259     31260     31261     31260     31262     31261     31262
     31263     31264     31263     31265     31264     31265     31266     31267
     31266     31268     31267     31268     31269     31270     31269     31271
     31270     31271     31272     31273     31272     31274     31273     31274
     31275     31276     31275     31277     31276     31277     31278     31279
     31278     31280     31279     31280     31281     31282     31281     31283
     31282     31283     31284     31285     31284     31286     31285     31286
     31287     31288     31287     31289     31288     31289     31290     31291
     31290     31292     31291     31292     31293     31294     31293     31295
     31294     31295     31296     31297     31296     31298     31297     31298
     31299     31300     31299     31301     31300     31301     31302     31303
     31302     31304     31303     31304     31305     31306     31305     31307
     31306     31307     31308     31309     31308     31310     31309     31310
     31311     31312     31311     31313     31312     31313     31314     31315
     31314     31316     31315     31316     31317     31318     31317     31319
     31318     31319     31320     31321     31320     31322     31321     31322
     31323     31324     31323     31325     31324     31325     31326     31327
     31326     31328     31327     31328     31329     31330     31329     31331
     31330     31331     31332     31333     31332     31334     31333     31334
     31335     31336     31335     31337     31336     31337     31338     31339
     31338     31340     31339     31340     31341     31342     31341     31343
     31342     31343     31344     31345     31344     31346     31345     31346
     31347     31348     31347     31349     31348     31349     31350     31351
     31350     31352     31351     31352     31353     31354     31353     31355
     31354     31355     31356     31357     31356     31358     31357     31358
     31359     31360     31359     31361     31360     31361     31362     31363
     31362     31364     31363     31364     31365     31366     31365     31367
     31366     31367     31368     31369     31368     31370     31369     31370
     31371     31372     31371     31373     31372     31373     31374     31375
     31374     31376     31375     31376     31377     31378     31377     31379
     31378     31379     31380     31381     31380     31382     31381     31382
     31383     31384     31383     31385     31384     31385     31386     31387
     31386     31388     31387     31388     31389     31390     31389     31391
     31390     31391     31392     31393     31392     31394     31393     31394
     31395     31396     31395     31397     31396     31397     31398     31399
     31398     31400     31399     31400     31401     31402     31401     31403
     31402     31403     31404     31405     31404     31406     31405     31406
     31407     31408     31407     31409     31408     31409     31410     31411
     31410     31412     31411     31412     31413     31414     31413     31415
     31414     31415     31416     31417     31416     31418     31417     31418
     31419     31420     31419     31421     31420     31421     31422     31423
     31422     31424     31423     31424     31425     31426     31425     31427
     31426     31427     31428     31429     31428     31430     31429     31430
     31431     31432     31431     31433     31432     31433     31434     31435
     31434     31436     31435     31436     31437     31438     31437     31439
     31438     31439     31440     31441     31440     31442     31441     31442
     31443     31444     31443     31445     31444     31445     31446     31447
     31446     31448     31447     31448     31449     31450     31449     31451
     31450     31451     31452     31453     31452     31454     31453     31454
     31455     31456     31455     31457     31456     31457     31458     31459
     31458     31460     31459     31460     31461     31462     31461     31463
     31462     31463     31464     31465     31464     31466     31465     31466
     31467     31468     31467     31469     31468     31469     31470     31471
     31470     31472     31471     31472     31473     31474     31473     31475
     31474     31475     31476     31477     31476     31478     31477     31478
     31479     31480     31479     31481     31480     31481     31482     31483
     31482     31484     31483     31484     31485     31486     31485     31487
     31486     31487     31488     31489     31488     31490     31489     31490
     31491     31492     31491     31493     31492     31493     31494     31495
     31494     31496     31495     31496     31497     31498     31497     31499
     31498     31499     31500     31501     31500     31502     31501     31502
     31503     31504     31503     31505     31504     31505     31506     31507
     31506     31508     31507     31508     31509     31510     31509     31511
     31510     31511     31512     31513     31512     31514     31513     31514
     31515     31516     31515     31517     31516     31517     31518     31519
     31518     31520     31519     31520     31521     31522     31521     31523
     31522     31523     31524     31525     31524     31526     31525     31526
     31527     31528     31527     31529     31528     31529     31530     31531
     31530     31532     31531     31532     31533     31534     31533     31535
     31534     31535     31536     31537     31536     31538     31537     31538
     31539     31540     31539     31541     31540     31541     31542     31543
     31542     31544     31543     31544     31545     31546     31545     31547
     31546     31547     31548     31549     31548     31550     31549     31550
     31551     31552     31551     31553     31552     31553     31554     31555
     31554     31556     31555     31556     31557     31558     31557     31559
     31558     31559     31560     31561     31560     31562     31561     31562
     31563     31564     31563     31565     31564     31565     31566     31567
     31566     31568     31567     31568     31569     31570     31569     31571
     31570     31571     31572     31573     31572     31574     31573     31574
     31575     31576     31575     31577     31576     31577     31578     31579
     31578     31580     31579     31580     31581     31582     31581     31583
     31582     31583     31584     31585     31584     31586     31585     31586
     31587     31588     31587     31589     31588     31589     31590     31591
     31590     31592     31591     31592     31593     31594     31593     31595
     31594     31595     31596     31597     31596     31598     31597     31598
     31599     31600     31599     31601     31600     31601     31602     31603
     31602     31604     31603     31604     31605     31606     31605     31607
     31606     31607     31608     31609     31608     31610     31609     31610
     31611     31612     31611     31613     31612     31613     31614     31615
     31614     31616     31615     31616     31617     31618     31617     31619
     31618     31619     31620     31621     31620     31622     31621     31622
     31623     31624     31623     31625     31624     31625     31626     31627
     31626     31628     31627     31628     31629     31630     31629     31631
     31630     31631     31632     31633     31632     31634     31633     31634
     31635     31636     31635     31637     31636     31637     31638     31639
     31638     31640     31639     31640     31641     31642     31641     31643
     31642     31643     31644     31645     31644     31646     31645     31646
     31647     31648     31647     31649     31648     31649     31650     31651
     31650     31652     31651     31652     31653     31654     31653     31655
     31654     31655     31656     31657     31656     31658     31657     31658
     31659     31660     31659     31661     31660     31661     31662     31663
     31662     31664     31663     31664     31665     31666     31665     31667
     31666     31667     31668     31669     31668     31670     31669     31670
     31671     31672     31671     31673     31672     31673     31674     31675
     31674     31676     31675     31676     31677     31678     31677     31679
     31678     31679     31680     31681     31680     31682     31681     31682
     31683     31684     31683     31685     31684     31685     31686     31687
     31686     31688     31687     31688     31689     31690     31689     31691
     31690     31691     31692     31693     31692     31694     31693     31694
     31695     31696     31695     31697     31696     31697     31698     31699
     31698     31700     31699     31700     31701     31702     31701     31703
     31702     31703     31704     31705     31704     31706     31705     31706
     31707     31708     31707     31709     31708     31709     31710     31711
     31710     31712     31711     31712     31713     31714     31713     31715
     31714     31715     31716     31717     31716     31718     31717     31718
     31719     31720     31719     31721     31720     31721     31722     31723
     31722     31724     31723     31724     31725     31726     31725     31727
     31726     31727     31728     31729     31728     31730     31729     31730
     31731     31732     31731     31733     31732     31733     31734     31735
     31734     31736     31735     31736     31737     31738     31737     31739
     31738     31739     31740     31741     31740     31742     31741     31742
     31743     31744     31743     31745     31744     31745     31746     31747
     31746     31748     31747     31748     31749     31750     31749     31751
     31750     31751     31752     31753     31752     31754     31753     31754
     31755     31756     31755     31757     31756     31757     31758     31759
     31758     31760     31759     31760     31761     31762     31761     31763
     31762     31763     31764     31765     31764     31766     31765     31766
     31767     31768     31767     31769     31768     31769     31770     31771
     31770     31772     31771     31772     31773     31774     31773     31775
     31774     31775     31776     31777     31776     31778     31777     31778
     31779     31780     31779     31781     31780     31781     31782     31783
     31782     31784     31783     31784     31785     31786     31785     31787
     31786     31787     31788     31789     31788     31790     31789     31790
     31791     31792     31791     31793     31792     31793     31794     31795
     31794     31796     31795     31796     31797     31798     31797     31799
     31798     31799     31800     31801     31800     31802     31801     31802
     31803     31804     31803     31805     31804     31805     31806     31807
     31806     31808     31807     31808     31809     31810     31809     31811
     31810     31811     31812     31813     31812     31814     31813     31814
     31815     31816     31815     31817     31816     31817     31818     31819
     31818     31820     31819     31820     31821     31822     31821     31823
     31822     31823     31824     31825     31824     31826     31825     31826
     31827     31828     31827     31829     31828     31829     31830     31831
     31830     31832     31831     31832     31833     31834     31833     31835
     31834     31835     31836     31837     31836     31838     31837     31838
     31839     31840     31839     31841     31840     31841     31842     31843
     31842     31844     31843     31844     31845     31846     31845     31847
     31846     31847     31848     31849     31848     31850     31849     31850
     31851     31852     31851     31853     31852     31853     31854     31855
     31854     31856     31855     31856     31857     31858     31857     31859
     31858     31859     31860     31861     31860     31862     31861     31862
     31863     31864     31863     31865     31864     31865     31866     31867
     31866     31868     31867     31868     31869     31870     31869     31871
     31870     31871     31872     31873     31872     31874     31873     31874
     31875     31876     31875     31877     31876     31877     31878     31879
     31878     31880     31879     31880     31881     31882     31881     31883
     31882     31883     31884     31885     31884     31886     31885     31886
     31887     31888     31887     31889     31888     31889     31890     31891
     31890     31892     31891     31892     31893     31894     31893     31895
     31894     31895     31896     31897     31896     31898     31897     31898
     31899     31900     31899     31901     31900     31901     31902     31903
     31902     31904     31903     31904     31905     31906     31905     31907
     31906     31907     31908     31909     31908     31910     31909     31910
     31911     31912     31911     31913     31912     31913     31914     31915
     31914     31916     31915     31916     31917     31918     31917     31919
     31918     31919     31920     31921     31920     31922     31921     31922
     31923     31924     31923     31925     31924     31925     31926     31927
     31926     31928     31927     31928     31929     31930     31929     31931
     31930     31931     31932     31933     31932     31934     31933     31934
     31935     31936     31935     31937     31936     31937     31938     31939
     31938     31940     31939     31940     31941     31942     31941     31943
     31942     31943     31944     31945     31944     31946     31945     31946
     31947     31948     31947     31949     31948     31949     31950     31951
     31950     31952     31951     31952     31953     31954     31953     31955
     31954     31955     31956     31957     31956     31958     31957     31958
     31959     31960     31959     31961     31960     31961     31962     31963
     31962     31964     31963     31964     31965     31966     31965     31967
     31966     31967     31968     31969     31968     31970     31969     31970
     31971     31972     31971     31973     31972     31973     31974     31975
     31974     31976     31975     31976     31977     31978     31977     31979
     31978     31979     31980     31981     31980     31982     31981     31982
     31983     31984     31983     31985     31984     31985     31986     31987
     31986     31988     31987     31988     31989     31990     31989     31991
     31990     31991     31992     31993     31992     31994     31993     31994
     31995     31996     31995     31997     31996     31997     31998     31999
     31998     32000     31999     32000     32001     32002     32001     32003
     32002     32003     32004     32005     32004     32006     32005     32006
     32007     32008     32007     32009     32008     32009     32010     32011
     32010     32012     32011     32012     32013     32014     32013     32015
     32014     32015     32016     32017     32016     32018     32017     32018
     32019     32020     32019     32021     32020     32021     32022     32023
     32022     32024     32023     32024     32025     32026     32025     32027
     32026     32027     32028     32029     32028     32030     32029     32030
     32031     32032     32031     32033     32032     32033     32034     32035
     32034     32036     32035     32036     32037     32038     32037     32039
     32038     32039     32040     32041     32040     32042     32041     32042
     32043     32044     32043     32045     32044     32045     32046     32047
     32046     32048     32047     32048     32049     32050     32049     32051
     32050     32051     32052     32053     32052     32054     32053     32054
     32055     32056     32055     32057     32056     32057     32058     32059
     32058     32060     32059     32060     32061     32062     32061     32063
     32062     32063     32064     32065     32064     32066     32065     32066
     32067     32068     32067     32069     32068     32069     32070     32071
     32070     32072     32071     32072     32073     32074     32073     32075
     32074     32075     32076     32077     32076     32078     32077     32078
     32079     32080     32079     32081     32080     32081     32082     32083
     32082     32084     32083     32084     32085     32086     32085     32087
     32086     32087     32088     32089     32088     32090     32089     32090
     32091     32092     32091     32093     32092     32093     32094     32095
     32094     32096     32095     32096     32097     32098     32097     32099
     32098     32099     32100     32101     32100     32102     32101     32102
     32103     32104     32103     32105     32104     32105     32106     32107
     32106     32108     32107     32108     32109     32110     32109     32111
     32110     32111     32112     32113     32112     32114     32113     32114
     32115     32116     32115     32117     32116     32117     32118     32119
     32118     32120     32119     32120     32121     32122     32121     32123
     32122     32123     32124     32125     32124     32126     32125     32126
     32127     32128     32127     32129     32128     32129     32130     32131
     32130     32132     32131     32132     32133     32134     32133     32135
     32134     32135     32136     32137     32136     32138     32137     32138
     32139     32140     32139     32141     32140     32141     32142     32143
     32142     32144     32143     32144     32145     32146     32145     32147
     32146     32147     32148     32149     32148     32150     32149     32150
     32151     32152     32151     32153     32152     32153     32154     32155
     32154     32156     32155     32156     32157     32158     32157     32159
     32158     32159     32160     32161     32160     32162     32161     32162
     32163     32164     32163     32165     32164     32165     32166     32167
     32166     32168     32167     32168     32169     32170     32169     32171
     32170     32171     32172     32173     32172     32174     32173     32174
     32175     32176     32175     32177     32176     32177     32178     32179
     32178     32180     32179     32180     32181     32182     32181     32183
     32182     32183     32184     32185     32184     32186     32185     32186
     32187     32188     32187     32189     32188     32189     32190     32191
     32190     32192     32191     32192     32193     32194     32193     32195
     32194     32195     32196     32197     32196     32198     32197     32198
     32199     32200     32199     32201     32200     32201     32202     32203
     32202     32204     32203     32204     32205     32206     32205     32207
     32206     32207     32208     32209     32208     32210     32209     32210
     32211     32212     32211     32213     32212     32213     32214     32215
     32214     32216     32215     32216     32217     32218     32217     32219
     32218     32219     32220     32221     32220     32222     32221     32222
     32223     32224     32223     32225     32224     32225     32226     32227
     32226     32228     32227     32228     32229     32230     32229     32231
     32230     32231     32232     32233     32232     32234     32233     32234
     32235     32236     32235     32237     32236     32237     32238     32239
     32238     32240     32239     32240     32241     32242     32241     32243
     32242     32243     32244     32245     32244     32246     32245     32246
     32247     32248     32247     32249     32248     32249     32250     32251
     32250     32252     32251     32252     32253     32254     32253     32255
     32254     32255     32256     32257     32256     32258     32257     32258
     32259     32260     32259     32261     32260     32261     32262     32263
     32262     32264     32263     32264     32265     32266     32265     32267
     32266     32267     32268     32269     32268     32270     32269     32270
     32271     32272     32271     32273     32272     32273     32274     32275
     32274     32276     32275     32276     32277     32278     32277     32279
     32278     32279     32280     32281     32280     32282     32281     32282
     32283     32284     32283     32285     32284     32285     32286     32287
     32286     32288     32287     32288     32289     32290     32289     32291
     32290     32291     32292     32293     32292     32294     32293     32294
     32295     32296     32295     32297     32296     32297     32298     32299
     32298     32300     32299     32300     32301     32302     32301     32303
     32302     32303     32304     32305     32304     32306     32305     32306
     32307     32308     32307     32309     32308     32309     32310     32311
     32310     32312     32311     32312     32313     32314     32313     32315
     32314     32315     32316     32317     32316     32318     32317     32318
     32319     32320     32319     32321     32320     32321     32322     32323
     32322     32324     32323     32324     32325     32326     32325     32327
     32326     32327     32328     32329     32328     32330     32329     32330
     32331     32332     32331     32333     32332     32333     32334     32335
     32334     32336     32335     32336     32337     32338     32337     32339
     32338     32339     32340     32341     32340     32342     32341     32342
     32343     32344     32343     32345     32344     32345     32346     32347
     32346     32348     32347     32348     32349     32350     32349     32351
     32350     32351     32352     32353     32352     32354     32353     32354
     32355     32356     32355     32357     32356     32357     32358     32359
     32358     32360     32359     32360     32361     32362     32361     32363
     32362     32363     32364     32365     32364     32366     32365     32366
     32367     32368     32367     32369     32368     32369     32370     32371
     32370     32372     32371     32372     32373     32374     32373     32375
     32374     32375     32376     32377     32376     32378     32377     32378
     32379     32380     32379     32381     32380     32381     32382     32383
     32382     32384     32383     32384     32385     32386     32385     32387
     32386     32387     32388     32389     32388     32390     32389     32390
     32391     32392     32391     32393     32392     32393     32394     32395
     32394     32396     32395     32396     32397     32398     32397     32399
     32398     32399     32400     32401     32400     32402     32401     32402
     32403     32404     32403     32405     32404     32405     32406     32407
     32406     32408     32407     32408     32409     32410     32409     32411
     32410     32411     32412     32413     32412     32414     32413     32414
     32415     32416     32415     32417     32416     32417     32418     32419
     32418     32420     32419     32420     32421     32422     32421     32423
     32422     32423     32424     32425     32424     32426     32425     32426
     32427     32428     32427     32429     32428     32429     32430     32431
     32430     32432     32431     32432     32433     32434     32433     32435
     32434     32435     32436     32437     32436     32438     32437     32438
     32439     32440     32439     32441     32440     32441     32442     32443
     32442     32444     32443     32444     32445     32446     32445     32447
     32446     32447     32448     32449     32448     32450     32449     32450
     32451     32452     32451     32453     32452     32453     32454     32455
     32454     32456     32455     32456     32457     32458     32457     32459
     32458     32459     32460     32461     32460     32462     32461     32462
     32463     32464     32463     32465     32464     32465     32466     32467
     32466     32468     32467     32468     32469     32470     32469     32471
     32470     32471     32472     32473     32472     32474     32473     32474
     32475     32476     32475     32477     32476     32477     32478     32479
     32478     32480     32479     32480     32481     32482     32481     32483
     32482     32483     32484     32485     32484     32486     32485     32486
     32487     32488     32487     32489     32488     32489     32490     32491
     32490     32492     32491     32492     32493     32494     32493     32495
     32494     32495     32496     32497     32496     32498     32497     32498
     32499     32500     32499     32501     32500     32501     32502     32503
     32502     32504     32503     32504     32505     32506     32505     32507
     32506     32507     32508     32509     32508     32510     32509     32510
     32511     32512     32511     32513     32512     32513     32514     32515
     32514     32516     32515     32516     32517     32518     32517     32519
     32518     32519     32520     32521     32520     32522     32521     32522
     32523     32524     32523     32525     32524     32525     32526     32527
     32526     32528     32527     32528     32529     32530     32529     32531
     32530     32531     32532     32533     32532     32534     32533     32534
     32535     32536     32535     32537     32536     32537     32538     32539
     32538     32540     32539     32540     32541     32542     32541     32543
     32542     32543     32544     32545     32544     32546     32545     32546
     32547     32548     32547     32549     32548     32549     32550     32551
     32550     32552     32551     32552     32553     32554     32553     32555
     32554     32555     32556     32557     32556     32558     32557     32558
     32559     32560     32559     32561     32560     32561     32562     32563
     32562     32564     32563     32564     32565     32566     32565     32567
     32566     32567     32568     32569     32568     32570     32569     32570
     32571     32572     32571     32573     32572     32573     32574     32575
     32574     32576     32575     32576     32577     32578     32577     32579
     32578     32579     32580     32581     32580     32582     32581     32582
     32583     32584     32583     32585     32584     32585     32586     32587
     32586     32588     32587     32588     32589     32590     32589     32591
     32590     32591     32592     32593     32592     32594     32593     32594
     32595     32596     32595     32597     32596     32597     32598     32599
     32598     32600     32599     32600     32601     32602     32601     32603
     32602     32603     32604     32605     32604     32606     32605     32606
     32607     32608     32607     32609     32608     32609     32610     32611
     32610     32612     32611     32612     32613     32614     32613     32615
     32614     32615     32616     32617     32616     32618     32617     32618
     32619     32620     32619     32621     32620     32621     32622     32623
     32622     32624     32623     32624     32625     32626     32625     32627
     32626     32627     32628     32629     32628     32630     32629     32630
     32631     32632     32631     32633     32632     32633     32634     32635
     32634     32636     32635     32636     32637     32638     32637     32639
     32638     32639     32640     32641     32640     32642     32641     32642
     32643     32644     32643     32645     32644     32645     32646     32647
     32646     32648     32647     32648     32649     32650     32649     32651
     32650     32651     32652     32653     32652     32654     32653     32654
     32655     32656     32655     32657     32656     32657     32658     32659
     32658     32660     32659     32660     32661     32662     32661     32663
     32662     32663     32664     32665     32664     32666     32665     32666
     32667     32668     32667     32669     32668     32669     32670     32671
     32670     32672     32671     32672     32673     32674     32673     32675
     32674     32675     32676     32677     32676     32678     32677     32678
     32679     32680     32679     32681     32680     32681     32682     32683
     32682     32684     32683     32684     32685     32686     32685     32687
     32686     32687     32688     32689     32688     32690     32689     32690
     32691     32692     32691     32693     32692     32693     32694     32695
     32694     32696     32695     32696     32697     32698     32697     32699
     32698     32699     32700     32701     32700     32702     32701     32702
     32703     32704     32703     32705     32704     32705     32706     32707
     32706     32708     32707     32708     32709     32710     32709     32711
     32710     32711     32712     32713     32712     32714     32713     32714
     32715     32716     32715     32717     32716     32717     32718     32719
     32718     32720     32719     32720     32721     32722     32721     32723
     32722     32723     32724     32725     32724     32726     32725     32726
     32727     32728     32727     32729     32728     32729     32730     32731
     32730     32732     32731     32732     32733     32734     32733     32735
     32734     32735     32736     32737     32736     32738     32737     32738
     32739     32740     32739     32741     32740     32741     32742     32743
     32742     32744     32743     32744     32745     32746     32745     32747
     32746     32747     32748     32749     32748     32750     32749     32750
     32751     32752     32751     32753     32752     32753     32754     32755
     32754     32756     32755     32756     32757     32758     32757     32759
     32758     32759     32760     32761     32760     32762     32761     32762
     32763     32764     32763     32765     32764     32765     32766     32767
     32766     32768     32767     32768     32769     32770     32769     32771
     32770     32771     32772     32773     32772     32774     32773     32774
     32775     32776     32775     32777     32776     32777     32778     32779
     32778     32780     32779     32780     32781     32782     32781     32783
     32782     32783     32784     32785     32784     32786     32785     32786
     32787     32788     32787     32789     32788     32789     32790     32791
     32790     32792     32791     32792     32793     32794     32793     32795
     32794     32795     32796     32797     32796     32798     32797     32798
     32799     32800     32799     32801     32800     32801     32802     32803
     32802     32804     32803     32804     32805     32806     32805     32807
     32806     32807     32808     32809     32808     32810     32809     32810
     32811     32812     32811     32813     32812     32813     32814     32815
     32814     32816     32815     32816     32817     32818     32817     32819
     32818     32819     32820     32821     32820     32822     32821     32822
     32823     32824     32823     32825     32824     32825     32826     32827
     32826     32828     32827     32828     32829     32830     32829     32831
     32830     32831     32832     32833     32832     32834     32833     32834
     32835     32836     32835     32837     32836     32837     32838     32839
     32838     32840     32839     32840     32841     32842     32841     32843
     32842     32843     32844     32845     32844     32846     32845     32846
     32847     32848     32847     32849     32848     32849     32850     32851
     32850     32852     32851     32852     32853     32854     32853     32855
     32854     32855     32856     32857     32856     32858     32857     32858
     32859     32860     32859     32861     32860     32861     32862     32863
     32862     32864     32863     32864     32865     32866     32865     32867
     32866     32867     32868     32869     32868     32870     32869     32870
     32871     32872     32871     32873     32872     32873     32874     32875
     32874     32876     32875     32876     32877     32878     32877     32879
     32878     32879     32880     32881     32880     32882     32881     32882
     32883     32884     32883     32885     32884     32885     32886     32887
     32886     32888     32887     32888     32889     32890     32889     32891
     32890     32891     32892     32893     32892     32894     32893     32894
     32895     32896     32895     32897     32896     32897     32898     32899
     32898     32900     32899     32900     32901     32902     32901     32903
     32902     32903     32904     32905     32904     32906     32905     32906
     32907     32908     32907     32909     32908     32909     32910     32911
     32910     32912     32911     32912     32913     32914     32913     32915
     32914     32915     32916     32917     32916     32918     32917     32918
     32919     32920     32919     32921     32920     32921     32922     32923
     32922     32924     32923     32924     32925     32926     32925     32927
     32926     32927     32928     32929     32928     32930     32929     32930
     32931     32932     32931     32933     32932     32933     32934     32935
     32934     32936     32935     32936     32937     32938     32937     32939
     32938     32939     32940     32941     32940     32942     32941     32942
     32943     32944     32943     32945     32944     32945     32946     32947
     32946     32948     32947     32948     32949     32950     32949     32951
     32950     32951     32952     32953     32952     32954     32953     32954
     32955     32956     32955     32957     32956     32957     32958     32959
     32958     32960     32959     32960     32961     32962     32961     32963
     32962     32963     32964     32965     32964     32966     32965     32966
     32967     32968     32967     32969     32968     32969     32970     32971
     32970     32972     32971     32972     32973     32974     32973     32975
     32974     32975     32976     32977     32976     32978     32977     32978
     32979     32980     32979     32981     32980     32981     32982     32983
     32982     32984     32983     32984     32985     32986     32985     32987
     32986     32987     32988     32989     32988     32990     32989     32990
     32991     32992     32991     32993     32992     32993     32994     32995
     32994     32996     32995     32996     32997     32998     32997     32999
     32998     32999     33000     33001     33000     33002     33001     33002
     33003     33004     33003     33005     33004     33005     33006     33007
     33006     33008     33007     33008     33009     33010     33009     33011
     33010     33011     33012     33013     33012     33014     33013     33014
     33015     33016     33015     33017     33016     33017     33018     33019
     33018     33020     33019     33020     33021     33022     33021     33023
     33022     33023     33024     33025     33024     33026     33025     33026
     33027     33028     33027     33029     33028     33029     33030     33031
     33030     33032     33031     33032     33033     33034     33033     33035
     33034     33035     33036     33037     33036     33038     33037     33038
     33039     33040     33039     33041     33040     33041     33042     33043
     33042     33044     33043     33044     33045     33046     33045     33047
     33046     33047     33048     33049     33048     33050     33049     33050
     33051     33052     33051     33053     33052     33053     33054     33055
     33054     33056     33055     33056     33057     33058     33057     33059
     33058     33059     33060     33061     33060     33062     33061     33062
     33063     33064     33063     33065     33064     33065     33066     33067
     33066     33068     33067     33068     33069     33070     33069     33071
     33070     33071     33072     33073     33072     33074     33073     33074
     33075     33076     33075     33077     33076     33077     33078     33079
     33078     33080     33079     33080     33081     33082     33081     33083
     33082     33083     33084     33085     33084     33086     33085     33086
     33087     33088     33087     33089     33088     33089     33090     33091
     33090     33092     33091     33092     33093     33094     33093     33095
     33094     33095     33096     33097     33096     33098     33097     33098
     33099     33100     33099     33101     33100     33101     33102     33103
     33102     33104     33103     33104     33105     33106     33105     33107
     33106     33107     33108     33109     33108     33110     33109     33110
     33111     33112     33111     33113     33112     33113     33114     33115
     33114     33116     33115     33116     33117     33118     33117     33119
     33118     33119     33120     33121     33120     33122     33121     33122
     33123     33124     33123     33125     33124     33125     33126     33127
     33126     33128     33127     33128     33129     33130     33129     33131
     33130     33131     33132     33133     33132     33134     33133     33134
     33135     33136     33135     33137     33136     33137     33138     33139
     33138     33140     33139     33140     33141     33142     33141     33143
     33142     33143     33144     33145     33144     33146     33145     33146
     33147     33148     33147     33149     33148     33149     33150     33151
     33150     33152     33151     33152     33153     33154     33153     33155
     33154     33155     33156     33157     33156     33158     33157     33158
     33159     33160     33159     33161     33160     33161     33162     33163
     33162     33164     33163     33164     33165     33166     33165     33167
     33166     33167     33168     33169     33168     33170     33169     33170
     33171     33172     33171     33173     33172     33173     33174     33175
     33174     33176     33175     33176     33177     33178     33177     33179
     33178     33179     33180     33181     33180     33182     33181     33182
     33183     33184     33183     33185     33184     33185     33186     33187
     33186     33188     33187     33188     33189     33190     33189     33191
     33190     33191     33192     33193     33192     33194     33193     33194
     33195     33196     33195     33197     33196     33197     33198     33199
     33198     33200     33199     33200     33201     33202     33201     33203
     33202     33203     33204     33205     33204     33206     33205     33206
     33207     33208     33207     33209     33208     33209     33210     33211
     33210     33212     33211     33212     33213     33214     33213     33215
     33214     33215     33216     33217     33216     33218     33217     33218
     33219     33220     33219     33221     33220     33221     33222     33223
     33222     33224     33223     33224     33225     33226     33225     33227
     33226     33227     33228     33229     33228     33230     33229     33230
     33231     33232     33231     33233     33232     33233     33234     33235
     33234     33236     33235     33236     33237     33238     33237     33239
     33238     33239     33240     33241     33240     33242     33241     33242
     33243     33244     33243     33245     33244     33245     33246     33247
     33246     33248     33247     33248     33249     33250     33249     33251
     33250     33251     33252     33253     33252     33254     33253     33254
     33255     33256     33255     33257     33256     33257     33258     33259
     33258     33260     33259     33260     33261     33262     33261     33263
     33262     33263     33264     33265     33264     33266     33265     33266
     33267     33268     33267     33269     33268     33269     33270     33271
     33270     33272     33271     33272     33273     33274     33273     33275
     33274     33275     33276     33277     33276     33278     33277     33278
     33279     33280     33279     33281     33280     33281     33282     33283
     33282     33284     33283     33284     33285     33286     33285     33287
     33286     33287     33288     33289     33288     33290     33289     33290
     33291     33292     33291     33293     33292     33293     33294     33295
     33294     33296     33295     33296     33297     33298     33297     33299
     33298     33299     33300     33301     33300     33302     33301     33302
     33303     33304     33303     33305     33304     33305     33306     33307
     33306     33308     33307     33308     33309     33310     33309     33311
     33310     33311     33312     33313     33312     33314     33313     33314
     33315     33316     33315     33317     33316     33317     33318     33319
     33318     33320     33319     33320     33321     33322     33321     33323
     33322     33323     33324     33325     33324     33326     33325     33326
     33327     33328     33327     33329     33328     33329     33330     33331
     33330     33332     33331     33332     33333     33334     33333     33335
     33334     33335     33336     33337     33336     33338     33337     33338
     33339     33340     33339     33341     33340     33341     33342     33343
     33342     33344     33343     33344     33345     33346     33345     33347
     33346     33347     33348     33349     33348     33350     33349     33350
     33351     33352     33351     33353     33352     33353     33354     33355
     33354     33356     33355     33356     33357     33358     33357     33359
     33358     33359     33360     33361     33360     33362     33361     33362
     33363     33364     33363     33365     33364     33365     33366     33367
     33366     33368     33367     33368     33369     33370     33369     33371
     33370     33371     33372     33373     33372     33374     33373     33374
     33375     33376     33375     33377     33376     33377     33378     33379
     33378     33380     33379     33380     33381     33382     33381     33383
     33382     33383     33384     33385     33384     33386     33385     33386
     33387     33388     33387     33389     33388     33389     33390     33391
     33390     33392     33391     33392     33393     33394     33393     33395
     33394     33395     33396     33397     33396     33398     33397     33398
     33399     33400     33399     33401     33400     33401     33402     33403
     33402     33404     33403     33404     33405     33406     33405     33407
     33406     33407     33408     33409     33408     33410     33409     33410
     33411     33412     33411     33413     33412     33413     33414     33415
     33414     33416     33415     33416     33417     33418     33417     33419
     33418     33419     33420     33421     33420     33422     33421     33422
     33423     33424     33423     33425     33424     33425     33426     33427
     33426     33428     33427     33428     33429     33430     33429     33431
     33430     33431     33432     33433     33432     33434     33433     33434
     33435     33436     33435     33437     33436     33437     33438     33439
     33438     33440     33439     33440     33441     33442     33441     33443
     33442     33443     33444     33445     33444     33446     33445     33446
     33447     33448     33447     33449     33448     33449     33450     33451
     33450     33452     33451     33452     33453     33454     33453     33455
     33454     33455     33456     33457     33456     33458     33457     33458
     33459     33460     33459     33461     33460     33461     33462     33463
     33462     33464     33463     33464     33465     33466     33465     33467
     33466     33467     33468     33469     33468     33470     33469     33470
     33471     33472     33471     33473     33472     33473     33474     33475
     33474     33476     33475     33476     33477     33478     33477     33479
     33478     33479     33480     33481     33480     33482     33481     33482
     33483     33484     33483     33485     33484     33485     33486     33487
     33486     33488     33487     33488     33489     33490     33489     33491
     33490     33491     33492     33493     33492     33494     33493     33494
     33495     33496     33495     33497     33496     33497     33498     33499
     33498     33500     33499     33500     33501     33502     33501     33503
     33502     33503     33504     33505     33504     33506     33505     33506
     33507     33508     33507     33509     33508     33509     33510     33511
     33510     33512     33511     33512     33513     33514     33513     33515
     33514     33515     33516     33517     33516     33518     33517     33518
     33519     33520     33519     33521     33520     33521     33522     33523
     33522     33524     33523     33524     33525     33526     33525     33527
     33526     33527     33528     33529     33528     33530     33529     33530
     33531     33532     33531     33533     33532     33533     33534     33535
     33534     33536     33535     33536     33537     33538     33537     33539
     33538     33539     33540     33541     33540     33542     33541     33542
     33543     33544     33543     33545     33544     33545     33546     33547
     33546     33548     33547     33548     33549     33550     33549     33551
     33550     33551     33552     33553     33552     33554     33553     33554
     33555     33556     33555     33557     33556     33557     33558     33559
     33558     33560     33559     33560     33561     33562     33561     33563
     33562     33563     33564     33565     33564     33566     33565     33566
     33567     33568     33567     33569     33568     33569     33570     33571
     33570     33572     33571     33572     33573     33574     33573     33575
     33574     33575     33576     33577     33576     33578     33577     33578
     33579     33580     33579     33581     33580     33581     33582     33583
     33582     33584     33583     33584     33585     33586     33585     33587
     33586     33587     33588     33589     33588     33590     33589     33590
     33591     33592     33591     33593     33592     33593     33594     33595
     33594     33596     33595     33596     33597     33598     33597     33599
     33598     33599     33600     33601     33600     33602     33601     33602
     33603     33604     33603     33605     33604     33605     33606     33607
     33606     33608     33607     33608     33609     33610     33609     33611
     33610     33611     33612     33613     33612     33614     33613     33614
     33615     33616     33615     33617     33616     33617     33618     33619
     33618     33620     33619     33620     33621     33622     33621     33623
     33622     33623     33624     33625     33624     33626     33625     33626
     33627     33628     33627     33629     33628     33629     33630     33631
     33630     33632     33631     33632     33633     33634     33633     33635
     33634     33635     33636     33637     33636     33638     33637     33638
     33639     33640     33639     33641     33640     33641     33642     33643
     33642     33644     33643     33644     33645     33646     33645     33647
     33646     33647     33648     33649     33648     33650     33649     33650
     33651     33652     33651     33653     33652     33653     33654     33655
     33654     33656     33655     33656     33657     33658     33657     33659
     33658     33659     33660     33661     33660     33662     33661     33662
     33663     33664     33663     33665     33664     33665     33666     33667
     33666     33668     33667     33668     33669     33670     33669     33671
     33670     33671     33672     33673     33672     33674     33673     33674
     33675     33676     33675     33677     33676     33677     33678     33679
     33678     33680     33679     33680     33681     33682     33681     33683
     33682     33683     33684     33685     33684     33686     33685     33686
     33687     33688     33687     33689     33688     33689     33690     33691
     33690     33692     33691     33692     33693     33694     33693     33695
     33694     33695     33696     33697     33696     33698     33697     33698
     33699     33700     33699     33701     33700     33701     33702     33703
     33702     33704     33703     33704     33705     33706     33705     33707
     33706     33707     33708     33709     33708     33710     33709     33710
     33711     33712     33711     33713     33712     33713     33714     33715
     33714     33716     33715     33716     33717     33718     33717     33719
     33718     33719     33720     33721     33720     33722     33721     33722
     33723     33724     33723     33725     33724     33725     33726     33727
     33726     33728     33727     33728     33729     33730     33729     33731
     33730     33731     33732     33733     33732     33734     33733     33734
     33735     33736     33735     33737     33736     33737     33738     33739
     33738     33740     33739     33740     33741     33742     33741     33743
     33742     33743     33744     33745     33744     33746     33745     33746
     33747     33748     33747     33749     33748     33749     33750     33751
     33750     33752     33751     33752     33753     33754     33753     33755
     33754     33755     33756     33757     33756     33758     33757     33758
     33759     33760     33759     33761     33760     33761     33762     33763
     33762     33764     33763     33764     33765     33766     33765     33767
     33766     33767     33768     33769     33768     33770     33769     33770
     33771     33772     33771     33773     33772     33773     33774     33775
     33774     33776     33775     33776     33777     33778     33777     33779
     33778     33779     33780     33781     33780     33782     33781     33782
     33783     33784     33783     33785     33784     33785     33786     33787
     33786     33788     33787     33788     33789     33790     33789     33791
     33790     33791     33792     33793     33792     33794     33793     33794
     33795     33796     33795     33797     33796     33797     33798     33799
     33798     33800     33799     33800     33801     33802     33801     33803
     33802     33803     33804     33805     33804     33806     33805     33806
     33807     33808     33807     33809     33808     33809     33810     33811
     33810     33812     33811     33812     33813     33814     33813     33815
     33814     33815     33816     33817     33816     33818     33817     33818
     33819     33820     33819     33821     33820     33821     33822     33823
     33822     33824     33823     33824     33825     33826     33825     33827
     33826     33827     33828     33829     33828     33830     33829     33830
     33831     33832     33831     33833     33832     33833     33834     33835
     33834     33836     33835     33836     33837     33838     33837     33839
     33838     33839     33840     33841     33840     33842     33841     33842
     33843     33844     33843     33845     33844     33845     33846     33847
     33846     33848     33847     33848     33849     33850     33849     33851
     33850     33851     33852     33853     33852     33854     33853     33854
     33855     33856     33855     33857     33856     33857     33858     33859
     33858     33860     33859     33860     33861     33862     33861     33863
     33862     33863     33864     33865     33864     33866     33865     33866
     33867     33868     33867     33869     33868     33869     33870     33871
     33870     33872     33871     33872     33873     33874     33873     33875
     33874     33875     33876     33877     33876     33878     33877     33878
     33879     33880     33879     33881     33880     33881     33882     33883
     33882     33884     33883     33884     33885     33886     33885     33887
     33886     33887     33888     33889     33888     33890     33889     33890
     33891     33892     33891     33893     33892     33893     33894     33895
     33894     33896     33895     33896     33897     33898     33897     33899
     33898     33899     33900     33901     33900     33902     33901     33902
     33903     33904     33903     33905     33904     33905     33906     33907
     33906     33908     33907     33908     33909     33910     33909     33911
     33910     33911     33912     33913     33912     33914     33913     33914
     33915     33916     33915     33917     33916     33917     33918     33919
     33918     33920     33919     33920     33921     33922     33921     33923
     33922     33923     33924     33925     33924     33926     33925     33926
     33927     33928     33927     33929     33928     33929     33930     33931
     33930     33932     33931     33932     33933     33934     33933     33935
     33934     33935     33936     33937     33936     33938     33937     33938
     33939     33940     33939     33941     33940     33941     33942     33943
     33942     33944     33943     33944     33945     33946     33945     33947
     33946     33947     33948     33949     33948     33950     33949     33950
     33951     33952     33951     33953     33952     33953     33954     33955
     33954     33956     33955     33956     33957     33958     33957     33959
     33958     33959     33960     33961     33960     33962     33961     33962
     33963     33964     33963     33965     33964     33965     33966     33967
     33966     33968     33967     33968     33969     33970     33969     33971
     33970     33971     33972     33973     33972     33974     33973     33974
     33975     33976     33975     33977     33976     33977     33978     33979
     33978     33980     33979     33980     33981     33982     33981     33983
     33982     33983     33984     33985     33984     33986     33985     33986
     33987     33988     33987     33989     33988     33989     33990     33991
     33990     33992     33991     33992     33993     33994     33993     33995
     33994     33995     33996     33997     33996     33998     33997     33998
     33999     34000     33999     34001     34000     34001     34002     34003
     34002     34004     34003     34004     34005     34006     34005     34007
     34006     34007     34008     34009     34008     34010     34009     34010
     34011     34012     34011     34013     34012     34013     34014     34015
     34014     34016     34015     34016     34017     34018     34017     34019
     34018     34019     34020     34021     34020     34022     34021     34022
     34023     34024     34023     34025     34024     34025     34026     34027
     34026     34028     34027     34028     34029     34030     34029     34031
     34030     34031     34032     34033     34032     34034     34033     34034
     34035     34036     34035     34037     34036     34037     34038     34039
     34038     34040     34039     34040     34041     34042     34041     34043
     34042     34043     34044     34045     34044     34046     34045     34046
     34047     34048     34047     34049     34048     34049     34050     34051
     34050     34052     34051     34052     34053     34054     34053     34055
     34054     34055     34056     34057     34056     34058     34057     34058
     34059     34060     34059     34061     34060     34061     34062     34063
     34062     34064     34063     34064     34065     34066     34065     34067
     34066     34067     34068     34069     34068     34070     34069     34070
     34071     34072     34071     34073     34072     34073     34074     34075
     34074     34076     34075     34076     34077     34078     34077     34079
     34078     34079     34080     34081     34080     34082     34081     34082
     34083     34084     34083     34085     34084     34085     34086     34087
     34086     34088     34087     34088     34089     34090     34089     34091
     34090     34091     34092     34093     34092     34094     34093     34094
     34095     34096     34095     34097     34096     34097     34098     34099
     34098     34100     34099     34100     34101     34102     34101     34103
     34102     34103     34104     34105     34104     34106     34105     34106
     34107     34108     34107     34109     34108     34109     34110     34111
     34110     34112     34111     34112     34113     34114     34113     34115
     34114     34115     34116     34117     34116     34118     34117     34118
     34119     34120     34119     34121     34120     34121     34122     34123
     34122     34124     34123     34124     34125     34126     34125     34127
     34126     34127     34128     34129     34128     34130     34129     34130
     34131     34132     34131     34133     34132     34133     34134     34135
     34134     34136     34135     34136     34137     34138     34137     34139
     34138     34139     34140     34141     34140     34142     34141     34142
     34143     34144     34143     34145     34144     34145     34146     34147
     34146     34148     34147     34148     34149     34150     34149     34151
     34150     34151     34152     34153     34152     34154     34153     34154
     34155     34156     34155     34157     34156     34157     34158     34159
     34158     34160     34159     34160     34161     34162     34161     34163
     34162     34163     34164     34165     34164     34166     34165     34166
     34167     34168     34167     34169     34168     34169     34170     34171
     34170     34172     34171     34172     34173     34174     34173     34175
     34174     34175     34176     34177     34176     34178     34177     34178
     34179     34180     34179     34181     34180     34181     34182     34183
     34182     34184     34183     34184     34185     34186     34185     34187
     34186     34187     34188     34189     34188     34190     34189     34190
     34191     34192     34191     34193     34192     34193     34194     34195
     34194     34196     34195     34196     34197     34198     34197     34199
     34198     34199     34200     34201     34200     34202     34201     34202
     34203     34204     34203     34205     34204     34205     34206     34207
     34206     34208     34207     34208     34209     34210     34209     34211
     34210     34211     34212     34213     34212     34214     34213     34214
     34215     34216     34215     34217     34216     34217     34218     34219
     34218     34220     34219     34220     34221     34222     34221     34223
     34222     34223     34224     34225     34224     34226     34225     34226
     34227     34228     34227     34229     34228     34229     34230     34231
     34230     34232     34231     34232     34233     34234     34233     34235
     34234     34235     34236     34237     34236     34238     34237     34238
     34239     34240     34239     34241     34240     34241     34242     34243
     34242     34244     34243     34244     34245     34246     34245     34247
     34246     34247     34248     34249     34248     34250     34249     34250
     34251     34252     34251     34253     34252     34253     34254     34255
     34254     34256     34255     34256     34257     34258     34257     34259
     34258     34259     34260     34261     34260     34262     34261     34262
     34263     34264     34263     34265     34264     34265     34266     34267
     34266     34268     34267     34268     34269     34270     34269     34271
     34270     34271     34272     34273     34272     34274     34273     34274
     34275     34276     34275     34277     34276     34277     34278     34279
     34278     34280     34279     34280     34281     34282     34281     34283
     34282     34283     34284     34285     34284     34286     34285     34286
     34287     34288     34287     34289     34288     34289     34290     34291
     34290     34292     34291     34292     34293     34294     34293     34295
     34294     34295     34296     34297     34296     34298     34297     34298
     34299     34300     34299     34301     34300     34301     34302     34303
     34302     34304     34303     34304     34305     34306     34305     34307
     34306     34307     34308     34309     34308     34310     34309     34310
     34311     34312     34311     34313     34312     34313     34314     34315
     34314     34316     34315     34316     34317     34318     34317     34319
     34318     34319     34320     34321     34320     34322     34321     34322
     34323     34324     34323     34325     34324     34325     34326     34327
     34326     34328     34327     34328     34329     34330     34329     34331
     34330     34331     34332     34333     34332     34334     34333     34334
     34335     34336     34335     34337     34336     34337     34338     34339
     34338     34340     34339     34340     34341     34342     34341     34343
     34342     34343     34344     34345     34344     34346     34345     34346
     34347     34348     34347     34349     34348     34349     34350     34351
     34350     34352     34351     34352     34353     34354     34353     34355
     34354     34355     34356     34357     34356     34358     34357     34358
     34359     34360     34359     34361     34360     34361     34362     34363
     34362     34364     34363     34364     34365     34366     34365     34367
     34366     34367     34368     34369     34368     34370     34369     34370
     34371     34372     34371     34373     34372     34373     34374     34375
     34374     34376     34375     34376     34377     34378     34377     34379
     34378     34379     34380     34381     34380     34382     34381     34382
     34383     34384     34383     34385     34384     34385     34386     34387
     34386     34388     34387     34388     34389     34390     34389     34391
     34390     34391     34392     34393     34392     34394     34393     34394
     34395     34396     34395     34397     34396     34397     34398     34399
     34398     34400     34399     34400     34401     34402     34401     34403
     34402     34403     34404     34405     34404     34406     34405     34406
     34407     34408     34407     34409     34408     34409     34410     34411
     34410     34412     34411     34412     34413     34414     34413     34415
     34414     34415     34416     34417     34416     34418     34417     34418
     34419     34420     34419     34421     34420     34421     34422     34423
     34422     34424     34423     34424     34425     34426     34425     34427
     34426     34427     34428     34429     34428     34430     34429     34430
     34431     34432     34431     34433     34432     34433     34434     34435
     34434     34436     34435     34436     34437     34438     34437     34439
     34438     34439     34440     34441     34440     34442     34441     34442
     34443     34444     34443     34445     34444     34445     34446     34447
     34446     34448     34447     34448     34449     34450     34449     34451
     34450     34451     34452     34453     34452     34454     34453     34454
     34455     34456     34455     34457     34456     34457     34458     34459
     34458     34460     34459     34460     34461     34462     34461     34463
     34462     34463     34464     34465     34464     34466     34465     34466
     34467     34468     34467     34469     34468     34469     34470     34471
     34470     34472     34471     34472     34473     34474     34473     34475
     34474     34475     34476     34477     34476     34478     34477     34478
     34479     34480     34479     34481     34480     34481     34482     34483
     34482     34484     34483     34484     34485     34486     34485     34487
     34486     34487     34488     34489     34488     34490     34489     34490
     34491     34492     34491     34493     34492     34493     34494     34495
     34494     34496     34495     34496     34497     34498     34497     34499
     34498     34499     34500     34501     34500     34502     34501     34502
     34503     34504     34503     34505     34504     34505     34506     34507
     34506     34508     34507     34508     34509     34510     34509     34511
     34510     34511     34512     34513     34512     34514     34513     34514
     34515     34516     34515     34517     34516     34517     34518     34519
     34518     34520     34519     34520     34521     34522     34521     34523
     34522     34523     34524     34525     34524     34526     34525     34526
     34527     34528     34527     34529     34528     34529     34530     34531
     34530     34532     34531     34532     34533     34534     34533     34535
     34534     34535     34536     34537     34536     34538     34537     34538
     34539     34540     34539     34541     34540     34541     34542     34543
     34542     34544     34543     34544     34545     34546     34545     34547
     34546     34547     34548     34549     34548     34550     34549     34550
     34551     34552     34551     34553     34552     34553     34554     34555
     34554     34556     34555     34556     34557     34558     34557     34559
     34558     34559     34560     34561     34560     34562     34561     34562
     34563     34564     34563     34565     34564     34565     34566     34567
     34566     34568     34567     34568     34569     34570     34569     34571
     34570     34571     34572     34573     34572     34574     34573     34574
     34575     34576     34575     34577     34576     34577     34578     34579
     34578     34580     34579     34580     34581     34582     34581     34583
     34582     34583     34584     34585     34584     34586     34585     34586
     34587     34588     34587     34589     34588     34589     34590     34591
     34590     34592     34591     34592     34593     34594     34593     34595
     34594     34595     34596     34597     34596     34598     34597     34598
     34599     34600     34599     34601     34600     34601     34602     34603
     34602     34604     34603     34604     34605     34606     34605     34607
     34606     34607     34608     34609     34608     34610     34609     34610
     34611     34612     34611     34613     34612     34613     34614     34615
     34614     34616     34615     34616     34617     34618     34617     34619
     34618     34619     34620     34621     34620     34622     34621     34622
     34623     34624     34623     34625     34624     34625     34626     34627
     34626     34628     34627     34628     34629     34630     34629     34631
     34630     34631     34632     34633     34632     34634     34633     34634
     34635     34636     34635     34637     34636     34637     34638     34639
     34638     34640     34639     34640     34641     34642     34641     34643
     34642     34643     34644     34645     34644     34646     34645     34646
     34647     34648     34647     34649     34648     34649     34650     34651
     34650     34652     34651     34652     34653     34654     34653     34655
     34654     34655     34656     34657     34656     34658     34657     34658
     34659     34660     34659     34661     34660     34661     34662     34663
     34662     34664     34663     34664     34665     34666     34665     34667
     34666     34667     34668     34669     34668     34670     34669     34670
     34671     34672     34671     34673     34672     34673     34674     34675
     34674     34676     34675     34676     34677     34678     34677     34679
     34678     34679     34680     34681     34680     34682     34681     34682
     34683     34684     34683     34685     34684     34685     34686     34687
     34686     34688     34687     34688     34689     34690     34689     34691
     34690     34691     34692     34693     34692     34694     34693     34694
     34695     34696     34695     34697     34696     34697     34698     34699
     34698     34700     34699     34700     34701     34702     34701     34703
     34702     34703     34704     34705     34704     34706     34705     34706
     34707     34708     34707     34709     34708     34709     34710     34711
     34710     34712     34711     34712     34713     34714     34713     34715
     34714     34715     34716     34717     34716     34718     34717     34718
     34719     34720     34719     34721     34720     34721     34722     34723
     34722     34724     34723     34724     34725     34726     34725     34727
     34726     34727     34728     34729     34728     34730     34729     34730
     34731     34732     34731     34733     34732     34733     34734     34735
     34734     34736     34735     34736     34737     34738     34737     34739
     34738     34739     34740     34741     34740     34742     34741     34742
     34743     34744     34743     34745     34744     34745     34746     34747
     34746     34748     34747     34748     34749     34750     34749     34751
     34750     34751     34752     34753     34752     34754     34753     34754
     34755     34756     34755     34757     34756     34757     34758     34759
     34758     34760     34759     34760     34761     34762     34761     34763
     34762     34763     34764     34765     34764     34766     34765     34766
     34767     34768     34767     34769     34768     34769     34770     34771
     34770     34772     34771     34772     34773     34774     34773     34775
     34774     34775     34776     34777     34776     34778     34777     34778
     34779     34780     34779     34781     34780     34781     34782     34783
     34782     34784     34783     34784     34785     34786     34785     34787
     34786     34787     34788     34789     34788     34790     34789     34790
     34791     34792     34791     34793     34792     34793     34794     34795
     34794     34796     34795     34796     34797     34798     34797     34799
     34798     34799     34800     34801     34800     34802     34801     34802
     34803     34804     34803     34805     34804     34805     34806     34807
     34806     34808     34807     34808     34809     34810     34809     34811
     34810     34811     34812     34813     34812     34814     34813     34814
     34815     34816     34815     34817     34816     34817     34818     34819
     34818     34820     34819     34820     34821     34822     34821     34823
     34822     34823     34824     34825     34824     34826     34825     34826
     34827     34828     34827     34829     34828     34829     34830     34831
     34830     34832     34831     34832     34833     34834     34833     34835
     34834     34835     34836     34837     34836     34838     34837     34838
     34839     34840     34839     34841     34840     34841     34842     34843
     34842     34844     34843     34844     34845     34846     34845     34847
     34846     34847     34848     34849     34848     34850     34849     34850
     34851     34852     34851     34853     34852     34853     34854     34855
     34854     34856     34855     34856     34857     34858     34857     34859
     34858     34859     34860     34861     34860     34862     34861     34862
     34863     34864     34863     34865     34864     34865     34866     34867
     34866     34868     34867     34868     34869     34870     34869     34871
     34870     34871     34872     34873     34872     34874     34873     34874
     34875     34876     34875     34877     34876     34877     34878     34879
     34878     34880     34879     34880     34881     34882     34881     34883
     34882     34883     34884     34885     34884     34886     34885     34886
     34887     34888     34887     34889     34888     34889     34890     34891
     34890     34892     34891     34892     34893     34894     34893     34895
     34894     34895     34896     34897     34896     34898     34897     34898
     34899     34900     34899     34901     34900     34901     34902     34903
     34902     34904     34903     34904     34905     34906     34905     34907
     34906     34907     34908     34909     34908     34910     34909     34910
     34911     34912     34911     34913     34912     34913     34914     34915
     34914     34916     34915     34916     34917     34918     34917     34919
     34918     34919     34920     34921     34920     34922     34921     34922
     34923     34924     34923     34925     34924     34925     34926     34927
     34926     34928     34927     34928     34929     34930     34929     34931
     34930     34931     34932     34933     34932     34934     34933     34934
     34935     34936     34935     34937     34936     34937     34938     34939
     34938     34940     34939     34940     34941     34942     34941     34943
     34942     34943     34944     34945     34944     34946     34945     34946
     34947     34948     34947     34949     34948     34949     34950     34951
     34950     34952     34951     34952     34953     34954     34953     34955
     34954     34955     34956     34957     34956     34958     34957     34958
     34959     34960     34959     34961     34960     34961     34962     34963
     34962     34964     34963     34964     34965     34966     34965     34967
     34966     34967     34968     34969     34968     34970     34969     34970
     34971     34972     34971     34973     34972     34973     34974     34975
     34974     34976     34975     34976     34977     34978     34977     34979
     34978     34979     34980     34981     34980     34982     34981     34982
     34983     34984     34983     34985     34984     34985     34986     34987
     34986     34988     34987     34988     34989     34990     34989     34991
     34990     34991     34992     34993     34992     34994     34993     34994
     34995     34996     34995     34997     34996     34997     34998     34999
     34998     35000     34999     35000     35001     35002     35001     35003
     35002     35003     35004     35005     35004     35006     35005     35006
     35007     35008     35007     35009     35008     35009     35010     35011
     35010     35012     35011     35012     35013     35014     35013     35015
     35014     35015     35016     35017     35016     35018     35017     35018
     35019     35020     35019     35021     35020     35021     35022     35023
     35022     35024     35023     35024     35025     35026     35025     35027
     35026     35027     35028     35029     35028     35030     35029     35030
     35031     35032     35031     35033     35032     35033     35034     35035
     35034     35036     35035     35036     35037     35038     35037     35039
     35038     35039     35040     35041     35040     35042     35041     35042
     35043     35044     35043     35045     35044     35045     35046     35047
     35046     35048     35047     35048     35049     35050     35049     35051
     35050     35051     35052     35053     35052     35054     35053     35054
     35055     35056     35055     35057     35056     35057     35058     35059
     35058     35060     35059     35060     35061     35062     35061     35063
     35062     35063     35064     35065     35064     35066     35065     35066
     35067     35068     35067     35069     35068     35069     35070     35071
     35070     35072     35071     35072     35073     35074     35073     35075
     35074     35075     35076     35077     35076     35078     35077     35078
     35079     35080     35079     35081     35080     35081     35082     35083
     35082     35084     35083     35084     35085     35086     35085     35087
     35086     35087     35088     35089     35088     35090     35089     35090
     35091     35092     35091     35093     35092     35093     35094     35095
     35094     35096     35095     35096     35097     35098     35097     35099
     35098     35099     35100     35101     35100     35102     35101     35102
     35103     35104     35103     35105     35104     35105     35106     35107
     35106     35108     35107     35108     35109     35110     35109     35111
     35110     35111     35112     35113     35112     35114     35113     35114
     35115     35116     35115     35117     35116     35117     35118     35119
     35118     35120     35119     35120     35121     35122     35121     35123
     35122     35123     35124     35125     35124     35126     35125     35126
     35127     35128     35127     35129     35128     35129     35130     35131
     35130     35132     35131     35132     35133     35134     35133     35135
     35134     35135     35136     35137     35136     35138     35137     35138
     35139     35140     35139     35141     35140     35141     35142     35143
     35142     35144     35143     35144     35145     35146     35145     35147
     35146     35147     35148     35149     35148     35150     35149     35150
     35151     35152     35151     35153     35152     35153     35154     35155
     35154     35156     35155     35156     35157     35158     35157     35159
     35158     35159     35160     35161     35160     35162     35161     35162
     35163     35164     35163     35165     35164     35165     35166     35167
     35166     35168     35167     35168     35169     35170     35169     35171
     35170     35171     35172     35173     35172     35174     35173     35174
     35175     35176     35175     35177     35176     35177     35178     35179
     35178     35180     35179     35180     35181     35182     35181     35183
     35182     35183     35184     35185     35184     35186     35185     35186
     35187     35188     35187     35189     35188     35189     35190     35191
     35190     35192     35191     35192     35193     35194     35193     35195
     35194     35195     35196     35197     35196     35198     35197     35198
     35199     35200     35199     35201     35200     35201     35202     35203
     35202     35204     35203     35204     35205     35206     35205     35207
     35206     35207     35208     35209     35208     35210     35209     35210
     35211     35212     35211     35213     35212     35213     35214     35215
     35214     35216     35215     35216     35217     35218     35217     35219
     35218     35219     35220     35221     35220     35222     35221     35222
     35223     35224     35223     35225     35224     35225     35226     35227
     35226     35228     35227     35228     35229     35230     35229     35231
     35230     35231     35232     35233     35232     35234     35233     35234
     35235     35236     35235     35237     35236     35237     35238     35239
     35238     35240     35239     35240     35241     35242     35241     35243
     35242     35243     35244     35245     35244     35246     35245     35246
     35247     35248     35247     35249     35248     35249     35250     35251
     35250     35252     35251     35252     35253     35254     35253     35255
     35254     35255     35256     35257     35256     35258     35257     35258
     35259     35260     35259     35261     35260     35261     35262     35263
     35262     35264     35263     35264     35265     35266     35265     35267
     35266     35267     35268     35269     35268     35270     35269     35270
     35271     35272     35271     35273     35272     35273     35274     35275
     35274     35276     35275     35276     35277     35278     35277     35279
     35278     35279     35280     35281     35280     35282     35281     35282
     35283     35284     35283     35285     35284     35285     35286     35287
     35286     35288     35287     35288     35289     35290     35289     35291
     35290     35291     35292     35293     35292     35294     35293     35294
     35295     35296     35295     35297     35296     35297     35298     35299
     35298     35300     35299     35300     35301     35302     35301     35303
     35302     35303     35304     35305     35304     35306     35305     35306
     35307     35308     35307     35309     35308     35309     35310     35311
     35310     35312     35311     35312     35313     35314     35313     35315
     35314     35315     35316     35317     35316     35318     35317     35318
     35319     35320     35319     35321     35320     35321     35322     35323
     35322     35324     35323     35324     35325     35326     35325     35327
     35326     35327     35328     35329     35328     35330     35329     35330
     35331     35332     35331     35333     35332     35333     35334     35335
     35334     35336     35335     35336     35337     35338     35337     35339
     35338     35339     35340     35341     35340     35342     35341     35342
     35343     35344     35343     35345     35344     35345     35346     35347
     35346     35348     35347     35348     35349     35350     35349     35351
     35350     35351     35352     35353     35352     35354     35353     35354
     35355     35356     35355     35357     35356     35357     35358     35359
     35358     35360     35359     35360     35361     35362     35361     35363
     35362     35363     35364     35365     35364     35366     35365     35366
     35367     35368     35367     35369     35368     35369     35370     35371
     35370     35372     35371     35372     35373     35374     35373     35375
     35374     35375     35376     35377     35376     35378     35377     35378
     35379     35380     35379     35381     35380     35381     35382     35383
     35382     35384     35383     35384     35385     35386     35385     35387
     35386     35387     35388     35389     35388     35390     35389     35390
     35391     35392     35391     35393     35392     35393     35394     35395
     35394     35396     35395     35396     35397     35398     35397     35399
     35398     35399     35400     35401     35400     35402     35401     35402
     35403     35404     35403     35405     35404     35405     35406     35407
     35406     35408     35407     35408     35409     35410     35409     35411
     35410     35411     35412     35413     35412     35414     35413     35414
     35415     35416     35415     35417     35416     35417     35418     35419
     35418     35420     35419     35420     35421     35422     35421     35423
     35422     35423     35424     35425     35424     35426     35425     35426
     35427     35428     35427     35429     35428     35429     35430     35431
     35430     35432     35431     35432     35433     35434     35433     35435
     35434     35435     35436     35437     35436     35438     35437     35438
     35439     35440     35439     35441     35440     35441     35442     35443
     35442     35444     35443     35444     35445     35446     35445     35447
     35446     35447     35448     35449     35448     35450     35449     35450
     35451     35452     35451     35453     35452     35453     35454     35455
     35454     35456     35455     35456     35457     35458     35457     35459
     35458     35459     35460     35461     35460     35462     35461     35462
     35463     35464     35463     35465     35464     35465     35466     35467
     35466     35468     35467     35468     35469     35470     35469     35471
     35470     35471     35472     35473     35472     35474     35473     35474
     35475     35476     35475     35477     35476     35477     35478     35479
     35478     35480     35479     35480     35481     35482     35481     35483
     35482     35483     35484     35485     35484     35486     35485     35486
     35487     35488     35487     35489     35488     35489     35490     35491
     35490     35492     35491     35492     35493     35494     35493     35495
     35494     35495     35496     35497     35496     35498     35497     35498
     35499     35500     35499     35501     35500     35501     35502     35503
     35502     35504     35503     35504     35505     35506     35505     35507
     35506     35507     35508     35509     35508     35510     35509     35510
     35511     35512     35511     35513     35512     35513     35514     35515
     35514     35516     35515     35516     35517     35518     35517     35519
     35518     35519     35520     35521     35520     35522     35521     35522
     35523     35524     35523     35525     35524     35525     35526     35527
     35526     35528     35527     35528     35529     35530     35529     35531
     35530     35531     35532     35533     35532     35534     35533     35534
     35535     35536     35535     35537     35536     35537     35538     35539
     35538     35540     35539     35540     35541     35542     35541     35543
     35542     35543     35544     35545     35544     35546     35545     35546
     35547     35548     35547     35549     35548     35549     35550     35551
     35550     35552     35551     35552     35553     35554     35553     35555
     35554     35555     35556     35557     35556     35558     35557     35558
     35559     35560     35559     35561     35560     35561     35562     35563
     35562     35564     35563     35564     35565     35566     35565     35567
     35566     35567     35568     35569     35568     35570     35569     35570
     35571     35572     35571     35573     35572     35573     35574     35575
     35574     35576     35575     35576     35577     35578     35577     35579
     35578     35579     35580     35581     35580     35582     35581     35582
     35583     35584     35583     35585     35584     35585     35586     35587
     35586     35588     35587     35588     35589     35590     35589     35591
     35590     35591     35592     35593     35592     35594     35593     35594
     35595     35596     35595     35597     35596     35597     35598     35599
     35598     35600     35599     35600     35601     35602     35601     35603
     35602     35603     35604     35605     35604     35606     35605     35606
     35607     35608     35607     35609     35608     35609     35610     35611
     35610     35612     35611     35612     35613     35614     35613     35615
     35614     35615     35616     35617     35616     35618     35617     35618
     35619     35620     35619     35621     35620     35621     35622     35623
     35622     35624     35623     35624     35625     35626     35625     35627
     35626     35627     35628     35629     35628     35630     35629     35630
     35631     35632     35631     35633     35632     35633     35634     35635
     35634     35636     35635     35636     35637     35638     35637     35639
     35638     35639     35640     35641     35640     35642     35641     35642
     35643     35644     35643     35645     35644     35645     35646     35647
     35646     35648     35647     35648     35649     35650     35649     35651
     35650     35651     35652     35653     35652     35654     35653     35654
     35655     35656     35655     35657     35656     35657     35658     35659
     35658     35660     35659     35660     35661     35662     35661     35663
     35662     35663     35664     35665     35664     35666     35665     35666
     35667     35668     35667     35669     35668     35669     35670     35671
     35670     35672     35671     35672     35673     35674     35673     35675
     35674     35675     35676     35677     35676     35678     35677     35678
     35679     35680     35679     35681     35680     35681     35682     35683
     35682     35684     35683     35684     35685     35686     35685     35687
     35686     35687     35688     35689     35688     35690     35689     35690
     35691     35692     35691     35693     35692     35693     35694     35695
     35694     35696     35695     35696     35697     35698     35697     35699
     35698     35699     35700     35701     35700     35702     35701     35702
     35703     35704     35703     35705     35704     35705     35706     35707
     35706     35708     35707     35708     35709     35710     35709     35711
     35710     35711     35712     35713     35712     35714     35713     35714
     35715     35716     35715     35717     35716     35717     35718     35719
     35718     35720     35719     35720     35721     35722     35721     35723
     35722     35723     35724     35725     35724     35726     35725     35726
     35727     35728     35727     35729     35728     35729     35730     35731
     35730     35732     35731     35732     35733     35734     35733     35735
     35734     35735     35736     35737     35736     35738     35737     35738
     35739     35740     35739     35741     35740     35741     35742     35743
     35742     35744     35743     35744     35745     35746     35745     35747
     35746     35747     35748     35749     35748     35750     35749     35750
     35751     35752     35751     35753     35752     35753     35754     35755
     35754     35756     35755     35756     35757     35758     35757     35759
     35758     35759     35760     35761     35760     35762     35761     35762
     35763     35764     35763     35765     35764     35765     35766     35767
     35766     35768     35767     35768     35769     35770     35769     35771
     35770     35771     35772     35773     35772     35774     35773     35774
     35775     35776     35775     35777     35776     35777     35778     35779
     35778     35780     35779     35780     35781     35782     35781     35783
     35782     35783     35784     35785     35784     35786     35785     35786
     35787     35788     35787     35789     35788     35789     35790     35791
     35790     35792     35791     35792     35793     35794     35793     35795
     35794     35795     35796     35797     35796     35798     35797     35798
     35799     35800     35799     35801     35800     35801     35802     35803
     35802     35804     35803     35804     35805     35806     35805     35807
     35806     35807     35808     35809     35808     35810     35809     35810
     35811     35812     35811     35813     35812     35813     35814     35815
     35814     35816     35815     35816     35817     35818     35817     35819
     35818     35819     35820     35821     35820     35822     35821     35822
     35823     35824     35823     35825     35824     35825     35826     35827
     35826     35828     35827     35828     35829     35830     35829     35831
     35830     35831     35832     35833     35832     35834     35833     35834
     35835     35836     35835     35837     35836     35837     35838     35839
     35838     35840     35839     35840     35841     35842     35841     35843
     35842     35843     35844     35845     35844     35846     35845     35846
     35847     35848     35847     35849     35848     35849     35850     35851
     35850     35852     35851     35852     35853     35854     35853     35855
     35854     35855     35856     35857     35856     35858     35857     35858
     35859     35860     35859     35861     35860     35861     35862     35863
     35862     35864     35863     35864     35865     35866     35865     35867
     35866     35867     35868     35869     35868     35870     35869     35870
     35871     35872     35871     35873     35872     35873     35874     35875
     35874     35876     35875     35876     35877     35878     35877     35879
     35878     35879     35880     35881     35880     35882     35881     35882
     35883     35884     35883     35885     35884     35885     35886     35887
     35886     35888     35887     35888     35889     35890     35889     35891
     35890     35891     35892     35893     35892     35894     35893     35894
     35895     35896     35895     35897     35896     35897     35898     35899
     35898     35900     35899     35900     35901     35902     35901     35903
     35902     35903     35904     35905     35904     35906     35905     35906
     35907     35908     35907     35909     35908     35909     35910     35911
     35910     35912     35911     35912     35913     35914     35913     35915
     35914     35915     35916     35917     35916     35918     35917     35918
     35919     35920     35919     35921     35920     35921     35922     35923
     35922     35924     35923     35924     35925     35926     35925     35927
     35926     35927     35928     35929     35928     35930     35929     35930
     35931     35932     35931     35933     35932     35933     35934     35935
     35934     35936     35935     35936     35937     35938     35937     35939
     35938     35939     35940     35941     35940     35942     35941     35942
     35943     35944     35943     35945     35944     35945     35946     35947
     35946     35948     35947     35948     35949     35950     35949     35951
     35950     35951     35952     35953     35952     35954     35953     35954
     35955     35956     35955     35957     35956     35957     35958     35959
     35958     35960     35959     35960     35961     35962     35961     35963
     35962     35963     35964     35965     35964     35966     35965     35966
     35967     35968     35967     35969     35968     35969     35970     35971
     35970     35972     35971     35972     35973     35974     35973     35975
     35974     35975     35976     35977     35976     35978     35977     35978
     35979     35980     35979     35981     35980     35981     35982     35983
     35982     35984     35983     35984     35985     35986     35985     35987
     35986     35987     35988     35989     35988     35990     35989     35990
     35991     35992     35991     35993     35992     35993     35994     35995
     35994     35996     35995     35996     35997     35998     35997     35999
     35998     35999     36000     36001     36000     36002     36001     36002
     36003     36004     36003     36005     36004     36005     36006     36007
     36006     36008     36007     36008     36009     36010     36009     36011
     36010     36011     36012     36013     36012     36014     36013     36014
     36015     36016     36015     36017     36016     36017     36018     36019
     36018     36020     36019     36020     36021     36022     36021     36023
     36022     36023     36024     36025     36024     36026     36025     36026
     36027     36028     36027     36029     36028     36029     36030     36031
     36030     36032     36031     36032     36033     36034     36033     36035
     36034     36035     36036     36037     36036     36038     36037     36038
     36039     36040     36039     36041     36040     36041     36042     36043
     36042     36044     36043     36044     36045     36046     36045     36047
     36046     36047     36048     36049     36048     36050     36049     36050
     36051     36052     36051     36053     36052     36053     36054     36055
     36054     36056     36055     36056     36057     36058     36057     36059
     36058     36059     36060     36061     36060     36062     36061     36062
     36063     36064     36063     36065     36064     36065     36066     36067
     36066     36068     36067     36068     36069     36070     36069     36071
     36070     36071     36072     36073     36072     36074     36073     36074
     36075     36076     36075     36077     36076     36077     36078     36079
     36078     36080     36079     36080     36081     36082     36081     36083
     36082     36083     36084     36085     36084     36086     36085     36086
     36087     36088     36087     36089     36088     36089     36090     36091
     36090     36092     36091     36092     36093     36094     36093     36095
     36094     36095     36096     36097     36096     36098     36097     36098
     36099     36100     36099     36101     36100     36101     36102     36103
     36102     36104     36103     36104     36105     36106     36105     36107
     36106     36107     36108     36109     36108     36110     36109     36110
     36111     36112     36111     36113     36112     36113     36114     36115
     36114     36116     36115     36116     36117     36118     36117     36119
     36118     36119     36120     36121     36120     36122     36121     36122
     36123     36124     36123     36125     36124     36125     36126     36127
     36126     36128     36127     36128     36129     36130     36129     36131
     36130     36131     36132     36133     36132     36134     36133     36134
     36135     36136     36135     36137     36136     36137     36138     36139
     36138     36140     36139     36140     36141     36142     36141     36143
     36142     36143     36144     36145     36144     36146     36145     36146
     36147     36148     36147     36149     36148     36149     36150     36151
     36150     36152     36151     36152     36153     36154     36153     36155
     36154     36155     36156     36157     36156     36158     36157     36158
     36159     36160     36159     36161     36160     36161     36162     36163
     36162     36164     36163     36164     36165     36166     36165     36167
     36166     36167     36168     36169     36168     36170     36169     36170
     36171     36172     36171     36173     36172     36173     36174     36175
     36174     36176     36175     36176     36177     36178     36177     36179
     36178     36179     36180     36181     36180     36182     36181     36182
     36183     36184     36183     36185     36184     36185     36186     36187
     36186     36188     36187     36188     36189     36190     36189     36191
     36190     36191     36192     36193     36192     36194     36193     36194
     36195     36196     36195     36197     36196     36197     36198     36199
     36198     36200     36199     36200     36201     36202     36201     36203
     36202     36203     36204     36205     36204     36206     36205     36206
     36207     36208     36207     36209     36208     36209     36210     36211
     36210     36212     36211     36212     36213     36214     36213     36215
     36214     36215     36216     36217     36216     36218     36217     36218
     36219     36220     36219     36221     36220     36221     36222     36223
     36222     36224     36223     36224     36225     36226     36225     36227
     36226     36227     36228     36229     36228     36230     36229     36230
     36231     36232     36231     36233     36232     36233     36234     36235
     36234     36236     36235     36236     36237     36238     36237     36239
     36238     36239     36240     36241     36240     36242     36241     36242
     36243     36244     36243     36245     36244     36245     36246     36247
     36246     36248     36247     36248     36249     36250     36249     36251
     36250     36251     36252     36253     36252     36254     36253     36254
     36255     36256     36255     36257     36256     36257     36258     36259
     36258     36260     36259     36260     36261     36262     36261     36263
     36262     36263     36264     36265     36264     36266     36265     36266
     36267     36268     36267     36269     36268     36269     36270     36271
     36270     36272     36271     36272     36273     36274     36273     36275
     36274     36275     36276     36277     36276     36278     36277     36278
     36279     36280     36279     36281     36280     36281     36282     36283
     36282     36284     36283     36284     36285     36286     36285     36287
     36286     36287     36288     36289     36288     36290     36289     36290
     36291     36292     36291     36293     36292     36293     36294     36295
     36294     36296     36295     36296     36297     36298     36297     36299
     36298     36299     36300     36301     36300     36302     36301     36302
     36303     36304     36303     36305     36304     36305     36306     36307
     36306     36308     36307     36308     36309     36310     36309     36311
     36310     36311     36312     36313     36312     36314     36313     36314
     36315     36316     36315     36317     36316     36317     36318     36319
     36318     36320     36319     36320     36321     36322     36321     36323
     36322     36323     36324     36325     36324     36326     36325     36326
     36327     36328     36327     36329     36328     36329     36330     36331
     36330     36332     36331     36332     36333     36334     36333     36335
     36334     36335     36336     36337     36336     36338     36337     36338
     36339     36340     36339     36341     36340     36341     36342     36343
     36342     36344     36343     36344     36345     36346     36345     36347
     36346     36347     36348     36349     36348     36350     36349     36350
     36351     36352     36351     36353     36352     36353     36354     36355
     36354     36356     36355     36356     36357     36358     36357     36359
     36358     36359     36360     36361     36360     36362     36361     36362
     36363     36364     36363     36365     36364     36365     36366     36367
     36366     36368     36367     36368     36369     36370     36369     36371
     36370     36371     36372     36373     36372     36374     36373     36374
     36375     36376     36375     36377     36376     36377     36378     36379
     36378     36380     36379     36380     36381     36382     36381     36383
     36382     36383     36384     36385     36384     36386     36385     36386
     36387     36388     36387     36389     36388     36389     36390     36391
     36390     36392     36391     36392     36393     36394     36393     36395
     36394     36395     36396     36397     36396     36398     36397     36398
     36399     36400     36399     36401     36400     36401     36402     36403
     36402     36404     36403     36404     36405     36406     36405     36407
     36406     36407     36408     36409     36408     36410     36409     36410
     36411     36412     36411     36413     36412     36413     36414     36415
     36414     36416     36415     36416     36417     36418     36417     36419
     36418     36419     36420     36421     36420     36422     36421     36422
     36423     36424     36423     36425     36424     36425     36426     36427
     36426     36428     36427     36428     36429     36430     36429     36431
     36430     36431     36432     36433     36432     36434     36433     36434
     36435     36436     36435     36437     36436     36437     36438     36439
     36438     36440     36439     36440     36441     36442     36441     36443
     36442     36443     36444     36445     36444     36446     36445     36446
     36447     36448     36447     36449     36448     36449     36450     36451
     36450     36452     36451     36452     36453     36454     36453     36455
     36454     36455     36456     36457     36456     36458     36457     36458
     36459     36460     36459     36461     36460     36461     36462     36463
     36462     36464     36463     36464     36465     36466     36465     36467
     36466     36467     36468     36469     36468     36470     36469     36470
     36471     36472     36471     36473     36472     36473     36474     36475
     36474     36476     36475     36476     36477     36478     36477     36479
     36478     36479     36480     36481     36480     36482     36481     36482
     36483     36484     36483     36485     36484     36485     36486     36487
     36486     36488     36487     36488     36489     36490     36489     36491
     36490     36491     36492     36493     36492     36494     36493     36494
     36495     36496     36495     36497     36496     36497     36498     36499
     36498     36500     36499     36500     36501     36502     36501     36503
     36502     36503     36504     36505     36504     36506     36505     36506
     36507     36508     36507     36509     36508     36509     36510     36511
     36510     36512     36511     36512     36513     36514     36513     36515
     36514     36515     36516     36517     36516     36518     36517     36518
     36519     36520     36519     36521     36520     36521     36522     36523
     36522     36524     36523     36524     36525     36526     36525     36527
     36526     36527     36528     36529     36528     36530     36529     36530
     36531     36532     36531     36533     36532     36533     36534     36535
     36534     36536     36535     36536     36537     36538     36537     36539
     36538     36539     36540     36541     36540     36542     36541     36542
     36543     36544     36543     36545     36544     36545     36546     36547
     36546     36548     36547     36548     36549     36550     36549     36551
     36550     36551     36552     36553     36552     36554     36553     36554
     36555     36556     36555     36557     36556     36557     36558     36559
     36558     36560     36559     36560     36561     36562     36561     36563
     36562     36563     36564     36565     36564     36566     36565     36566
     36567     36568     36567     36569     36568     36569     36570     36571
     36570     36572     36571     36572     36573     36574     36573     36575
     36574     36575     36576     36577     36576     36578     36577     36578
     36579     36580     36579     36581     36580     36581     36582     36583
     36582     36584     36583     36584     36585     36586     36585     36587
     36586     36587     36588     36589     36588     36590     36589     36590
     36591     36592     36591     36593     36592     36593     36594     36595
     36594     36596     36595     36596     36597     36598     36597     36599
     36598     36599     36600     36601     36600     36602     36601     36602
     36603     36604     36603     36605     36604     36605     36606     36607
     36606     36608     36607     36608     36609     36610     36609     36611
     36610     36611     36612     36613     36612     36614     36613     36614
     36615     36616     36615     36617     36616     36617     36618     36619
     36618     36620     36619     36620     36621     36622     36621     36623
     36622     36623     36624     36625     36624     36626     36625     36626
     36627     36628     36627     36629     36628     36629     36630     36631
     36630     36632     36631     36632     36633     36634     36633     36635
     36634     36635     36636     36637     36636     36638     36637     36638
     36639     36640     36639     36641     36640     36641     36642     36643
     36642     36644     36643     36644     36645     36646     36645     36647
     36646     36647     36648     36649     36648     36650     36649     36650
     36651     36652     36651     36653     36652     36653     36654     36655
     36654     36656     36655     36656     36657     36658     36657     36659
     36658     36659     36660     36661     36660     36662     36661     36662
     36663     36664     36663     36665     36664     36665     36666     36667
     36666     36668     36667     36668     36669     36670     36669     36671
     36670     36671     36672     36673     36672     36674     36673     36674
     36675     36676     36675     36677     36676     36677     36678     36679
     36678     36680     36679     36680     36681     36682     36681     36683
     36682     36683     36684     36685     36684     36686     36685     36686
     36687     36688     36687     36689     36688     36689     36690     36691
     36690     36692     36691     36692     36693     36694     36693     36695
     36694     36695     36696     36697     36696     36698     36697     36698
     36699     36700     36699     36701     36700     36701     36702     36703
     36702     36704     36703     36704     36705     36706     36705     36707
     36706     36707     36708     36709     36708     36710     36709     36710
     36711     36712     36711     36713     36712     36713     36714     36715
     36714     36716     36715     36716     36717     36718     36717     36719
     36718     36719     36720     36721     36720     36722     36721     36722
     36723     36724     36723     36725     36724     36725     36726     36727
     36726     36728     36727     36728     36729     36730     36729     36731
     36730     36731     36732     36733     36732     36734     36733     36734
     36735     36736     36735     36737     36736     36737     36738     36739
     36738     36740     36739     36740     36741     36742     36741     36743
     36742     36743     36744     36745     36744     36746     36745     36746
     36747     36748     36747     36749     36748     36749     36750     36751
     36750     36752     36751     36752     36753     36754     36753     36755
     36754     36755     36756     36757     36756     36758     36757     36758
     36759     36760     36759     36761     36760     36761     36762     36763
     36762     36764     36763     36764     36765     36766     36765     36767
     36766     36767     36768     36769     36768     36770     36769     36770
     36771     36772     36771     36773     36772     36773     36774     36775
     36774     36776     36775     36776     36777     36778     36777     36779
     36778     36779     36780     36781     36780     36782     36781     36782
     36783     36784     36783     36785     36784     36785     36786     36787
     36786     36788     36787     36788     36789     36790     36789     36791
     36790     36791     36792     36793     36792     36794     36793     36794
     36795     36796     36795     36797     36796     36797     36798     36799
     36798     36800     36799     36800     36801     36802     36801     36803
     36802     36803     36804     36805     36804     36806     36805     36806
     36807     36808     36807     36809     36808     36809     36810     36811
     36810     36812     36811     36812     36813     36814     36813     36815
     36814     36815     36816     36817     36816     36818     36817     36818
     36819     36820     36819     36821     36820     36821     36822     36823
     36822     36824     36823     36824     36825     36826     36825     36827
     36826     36827     36828     36829     36828     36830     36829     36830
     36831     36832     36831     36833     36832     36833     36834     36835
     36834     36836     36835     36836     36837     36838     36837     36839
     36838     36839     36840     36841     36840     36842     36841     36842
     36843     36844     36843     36845     36844     36845     36846     36847
     36846     36848     36847     36848     36849     36850     36849     36851
     36850     36851     36852     36853     36852     36854     36853     36854
     36855     36856     36855     36857     36856     36857     36858     36859
     36858     36860     36859     36860     36861     36862     36861     36863
     36862     36863     36864     36865     36864     36866     36865     36866
     36867     36868     36867     36869     36868     36869     36870     36871
     36870     36872     36871     36872     36873     36874     36873     36875
     36874     36875     36876     36877     36876     36878     36877     36878
     36879     36880     36879     36881     36880     36881     36882     36883
     36882     36884     36883     36884     36885     36886     36885     36887
     36886     36887     36888     36889     36888     36890     36889     36890
     36891     36892     36891     36893     36892     36893     36894     36895
     36894     36896     36895     36896     36897     36898     36897     36899
     36898     36899     36900     36901     36900     36902     36901     36902
     36903     36904     36903     36905     36904     36905     36906     36907
     36906     36908     36907     36908     36909     36910     36909     36911
     36910     36911     36912     36913     36912     36914     36913     36914
     36915     36916     36915     36917     36916     36917     36918     36919
     36918     36920     36919     36920     36921     36922     36921     36923
     36922     36923     36924     36925     36924     36926     36925     36926
     36927     36928     36927     36929     36928     36929     36930     36931
     36930     36932     36931     36932     36933     36934     36933     36935
     36934     36935     36936     36937     36936     36938     36937     36938
     36939     36940     36939     36941     36940     36941     36942     36943
     36942     36944     36943     36944     36945     36946     36945     36947
     36946     36947     36948     36949     36948     36950     36949     36950
     36951     36952     36951     36953     36952     36953     36954     36955
     36954     36956     36955     36956     36957     36958     36957     36959
     36958     36959     36960     36961     36960     36962     36961     36962
     36963     36964     36963     36965     36964     36965     36966     36967
     36966     36968     36967     36968     36969     36970     36969     36971
     36970     36971     36972     36973     36972     36974     36973     36974
     36975     36976     36975     36977     36976     36977     36978     36979
     36978     36980     36979     36980     36981     36982     36981     36983
     36982     36983     36984     36985     36984     36986     36985     36986
     36987     36988     36987     36989     36988     36989     36990     36991
     36990     36992     36991     36992     36993     36994     36993     36995
     36994     36995     36996     36997     36996     36998     36997     36998
     36999     37000     36999     37001     37000     37001     37002     37003
     37002     37004     37003     37004     37005     37006     37005     37007
     37006     37007     37008     37009     37008     37010     37009     37010
     37011     37012     37011     37013     37012     37013     37014     37015
     37014     37016     37015     37016     37017     37018     37017     37019
     37018     37019     37020     37021     37020     37022     37021     37022
     37023     37024     37023     37025     37024     37025     37026     37027
     37026     37028     37027     37028     37029     37030     37029     37031
     37030     37031     37032     37033     37032     37034     37033     37034
     37035     37036     37035     37037     37036     37037     37038     37039
     37038     37040     37039     37040     37041     37042     37041     37043
     37042     37043     37044     37045     37044     37046     37045     37046
     37047     37048     37047     37049     37048     37049     37050     37051
     37050     37052     37051     37052     37053     37054     37053     37055
     37054     37055     37056     37057     37056     37058     37057     37058
     37059     37060     37059     37061     37060     37061     37062     37063
     37062     37064     37063     37064     37065     37066     37065     37067
     37066     37067     37068     37069     37068     37070     37069     37070
     37071     37072     37071     37073     37072     37073     37074     37075
     37074     37076     37075     37076     37077     37078     37077     37079
     37078     37079     37080     37081     37080     37082     37081     37082
     37083     37084     37083     37085     37084     37085     37086     37087
     37086     37088     37087     37088     37089     37090     37089     37091
     37090     37091     37092     37093     37092     37094     37093     37094
     37095     37096     37095     37097     37096     37097     37098     37099
     37098     37100     37099     37100     37101     37102     37101     37103
     37102     37103     37104     37105     37104     37106     37105     37106
     37107     37108     37107     37109     37108     37109     37110     37111
     37110     37112     37111     37112     37113     37114     37113     37115
     37114     37115     37116     37117     37116     37118     37117     37118
     37119     37120     37119     37121     37120     37121     37122     37123
     37122     37124     37123     37124     37125     37126     37125     37127
     37126     37127     37128     37129     37128     37130     37129     37130
     37131     37132     37131     37133     37132     37133     37134     37135
     37134     37136     37135     37136     37137     37138     37137     37139
     37138     37139     37140     37141     37140     37142     37141     37142
     37143     37144     37143     37145     37144     37145     37146     37147
     37146     37148     37147     37148     37149     37150     37149     37151
     37150     37151     37152     37153     37152     37154     37153     37154
     37155     37156     37155     37157     37156     37157     37158     37159
     37158     37160     37159     37160     37161     37162     37161     37163
     37162     37163     37164     37165     37164     37166     37165     37166
     37167     37168     37167     37169     37168     37169     37170     37171
     37170     37172     37171     37172     37173     37174     37173     37175
     37174     37175     37176     37177     37176     37178     37177     37178
     37179     37180     37179     37181     37180     37181     37182     37183
     37182     37184     37183     37184     37185     37186     37185     37187
     37186     37187     37188     37189     37188     37190     37189     37190
     37191     37192     37191     37193     37192     37193     37194     37195
     37194     37196     37195     37196     37197     37198     37197     37199
     37198     37199     37200     37201     37200     37202     37201     37202
     37203     37204     37203     37205     37204     37205     37206     37207
     37206     37208     37207     37208     37209     37210     37209     37211
     37210     37211     37212     37213     37212     37214     37213     37214
     37215     37216     37215     37217     37216     37217     37218     37219
     37218     37220     37219     37220     37221     37222     37221     37223
     37222     37223     37224     37225     37224     37226     37225     37226
     37227     37228     37227     37229     37228     37229     37230     37231
     37230     37232     37231     37232     37233     37234     37233     37235
     37234     37235     37236     37237     37236     37238     37237     37238
     37239     37240     37239     37241     37240     37241     37242     37243
     37242     37244     37243     37244     37245     37246     37245     37247
     37246     37247     37248     37249     37248     37250     37249     37250
     37251     37252     37251     37253     37252     37253     37254     37255
     37254     37256     37255     37256     37257     37258     37257     37259
     37258     37259     37260     37261     37260     37262     37261     37262
     37263     37264     37263     37265     37264     37265     37266     37267
     37266     37268     37267     37268     37269     37270     37269     37271
     37270     37271     37272     37273     37272     37274     37273     37274
     37275     37276     37275     37277     37276     37277     37278     37279
     37278     37280     37279     37280     37281     37282     37281     37283
     37282     37283     37284     37285     37284     37286     37285     37286
     37287     37288     37287     37289     37288     37289     37290     37291
     37290     37292     37291     37292     37293     37294     37293     37295
     37294     37295     37296     37297     37296     37298     37297     37298
     37299     37300     37299     37301     37300     37301     37302     37303
     37302     37304     37303     37304     37305     37306     37305     37307
     37306     37307     37308     37309     37308     37310     37309     37310
     37311     37312     37311     37313     37312     37313     37314     37315
     37314     37316     37315     37316     37317     37318     37317     37319
     37318     37319     37320     37321     37320     37322     37321     37322
     37323     37324     37323     37325     37324     37325     37326     37327
     37326     37328     37327     37328     37329     37330     37329     37331
     37330     37331     37332     37333     37332     37334     37333     37334
     37335     37336     37335     37337     37336     37337     37338     37339
     37338     37340     37339     37340     37341     37342     37341     37343
     37342     37343     37344     37345     37344     37346     37345     37346
     37347     37348     37347     37349     37348     37349     37350     37351
     37350     37352     37351     37352     37353     37354     37353     37355
     37354     37355     37356     37357     37356     37358     37357     37358
     37359     37360     37359     37361     37360     37361     37362     37363
     37362     37364     37363     37364     37365     37366     37365     37367
     37366     37367     37368     37369     37368     37370     37369     37370
     37371     37372     37371     37373     37372     37373     37374     37375
     37374     37376     37375     37376     37377     37378     37377     37379
     37378     37379     37380     37381     37380     37382     37381     37382
     37383     37384     37383     37385     37384     37385     37386     37387
     37386     37388     37387     37388     37389     37390     37389     37391
     37390     37391     37392     37393     37392     37394     37393     37394
     37395     37396     37395     37397     37396     37397     37398     37399
     37398     37400     37399     37400     37401     37402     37401     37403
     37402     37403     37404     37405     37404     37406     37405     37406
     37407     37408     37407     37409     37408     37409     37410     37411
     37410     37412     37411     37412     37413     37414     37413     37415
     37414     37415     37416     37417     37416     37418     37417     37418
     37419     37420     37419     37421     37420     37421     37422     37423
     37422     37424     37423     37424     37425     37426     37425     37427
     37426     37427     37428     37429     37428     37430     37429     37430
     37431     37432     37431     37433     37432     37433     37434     37435
     37434     37436     37435     37436     37437     37438     37437     37439
     37438     37439     37440     37441     37440     37442     37441     37442
     37443     37444     37443     37445     37444     37445     37446     37447
     37446     37448     37447     37448     37449     37450     37449     37451
     37450     37451     37452     37453     37452     37454     37453     37454
     37455     37456     37455     37457     37456     37457     37458     37459
     37458     37460     37459     37460     37461     37462     37461     37463
     37462     37463     37464     37465     37464     37466     37465     37466
     37467     37468     37467     37469     37468     37469     37470     37471
     37470     37472     37471     37472     37473     37474     37473     37475
     37474     37475     37476     37477     37476     37478     37477     37478
     37479     37480     37479     37481     37480     37481     37482     37483
     37482     37484     37483     37484     37485     37486     37485     37487
     37486     37487     37488     37489     37488     37490     37489     37490
     37491     37492     37491     37493     37492     37493     37494     37495
     37494     37496     37495     37496     37497     37498     37497     37499
     37498     37499     37500     37501     37500     37502     37501     37502
     37503     37504     37503     37505     37504     37505     37506     37507
     37506     37508     37507     37508     37509     37510     37509     37511
     37510     37511     37512     37513     37512     37514     37513     37514
     37515     37516     37515     37517     37516     37517     37518     37519
     37518     37520     37519     37520     37521     37522     37521     37523
     37522     37523     37524     37525     37524     37526     37525     37526
     37527     37528     37527     37529     37528     37529     37530     37531
     37530     37532     37531     37532     37533     37534     37533     37535
     37534     37535     37536     37537     37536     37538     37537     37538
     37539     37540     37539     37541     37540     37541     37542     37543
     37542     37544     37543     37544     37545     37546     37545     37547
     37546     37547     37548     37549     37548     37550     37549     37550
     37551     37552     37551     37553     37552     37553     37554     37555
     37554     37556     37555     37556     37557     37558     37557     37559
     37558     37559     37560     37561     37560     37562     37561     37562
     37563     37564     37563     37565     37564     37565     37566     37567
     37566     37568     37567     37568     37569     37570     37569     37571
     37570     37571     37572     37573     37572     37574     37573     37574
     37575     37576     37575     37577     37576     37577     37578     37579
     37578     37580     37579     37580     37581     37582     37581     37583
     37582     37583     37584     37585     37584     37586     37585     37586
     37587     37588     37587     37589     37588     37589     37590     37591
     37590     37592     37591     37592     37593     37594     37593     37595
     37594     37595     37596     37597     37596     37598     37597     37598
     37599     37600     37599     37601     37600     37601     37602     37603
     37602     37604     37603     37604     37605     37606     37605     37607
     37606     37607     37608     37609     37608     37610     37609     37610
     37611     37612     37611     37613     37612     37613     37614     37615
     37614     37616     37615     37616     37617     37618     37617     37619
     37618     37619     37620     37621     37620     37622     37621     37622
     37623     37624     37623     37625     37624     37625     37626     37627
     37626     37628     37627     37628     37629     37630     37629     37631
     37630     37631     37632     37633     37632     37634     37633     37634
     37635     37636     37635     37637     37636     37637     37638     37639
     37638     37640     37639     37640     37641     37642     37641     37643
     37642     37643     37644     37645     37644     37646     37645     37646
     37647     37648     37647     37649     37648     37649     37650     37651
     37650     37652     37651     37652     37653     37654     37653     37655
     37654     37655     37656     37657     37656     37658     37657     37658
     37659     37660     37659     37661     37660     37661     37662     37663
     37662     37664     37663     37664     37665     37666     37665     37667
     37666     37667     37668     37669     37668     37670     37669     37670
     37671     37672     37671     37673     37672     37673     37674     37675
     37674     37676     37675     37676     37677     37678     37677     37679
     37678     37679     37680     37681     37680     37682     37681     37682
     37683     37684     37683     37685     37684     37685     37686     37687
     37686     37688     37687     37688     37689     37690     37689     37691
     37690     37691     37692     37693     37692     37694     37693     37694
     37695     37696     37695     37697     37696     37697     37698     37699
     37698     37700     37699     37700     37701     37702     37701     37703
     37702     37703     37704     37705     37704     37706     37705     37706
     37707     37708     37707     37709     37708     37709     37710     37711
     37710     37712     37711     37712     37713     37714     37713     37715
     37714     37715     37716     37717     37716     37718     37717     37718
     37719     37720     37719     37721     37720     37721     37722     37723
     37722     37724     37723     37724     37725     37726     37725     37727
     37726     37727     37728     37729     37728     37730     37729     37730
     37731     37732     37731     37733     37732     37733     37734     37735
     37734     37736     37735     37736     37737     37738     37737     37739
     37738     37739     37740     37741     37740     37742     37741     37742
     37743     37744     37743     37745     37744     37745     37746     37747
     37746     37748     37747     37748     37749     37750     37749     37751
     37750     37751     37752     37753     37752     37754     37753     37754
     37755     37756     37755     37757     37756     37757     37758     37759
     37758     37760     37759     37760     37761     37762     37761     37763
     37762     37763     37764     37765     37764     37766     37765     37766
     37767     37768     37767     37769     37768     37769     37770     37771
     37770     37772     37771     37772     37773     37774     37773     37775
     37774     37775     37776     37777     37776     37778     37777     37778
     37779     37780     37779     37781     37780     37781     37782     37783
     37782     37784     37783     37784     37785     37786     37785     37787
     37786     37787     37788     37789     37788     37790     37789     37790
     37791     37792     37791     37793     37792     37793     37794     37795
     37794     37796     37795     37796     37797     37798     37797     37799
     37798     37799     37800     37801     37800     37802     37801     37802
     37803     37804     37803     37805     37804     37805     37806     37807
     37806     37808     37807     37808     37809     37810     37809     37811
     37810     37811     37812     37813     37812     37814     37813     37814
     37815     37816     37815     37817     37816     37817     37818     37819
     37818     37820     37819     37820     37821     37822     37821     37823
     37822     37823     37824     37825     37824     37826     37825     37826
     37827     37828     37827     37829     37828     37829     37830     37831
     37830     37832     37831     37832     37833     37834     37833     37835
     37834     37835     37836     37837     37836     37838     37837     37838
     37839     37840     37839     37841     37840     37841     37842     37843
     37842     37844     37843     37844     37845     37846     37845     37847
     37846     37847     37848     37849     37848     37850     37849     37850
     37851     37852     37851     37853     37852     37853     37854     37855
     37854     37856     37855     37856     37857     37858     37857     37859
     37858     37859     37860     37861     37860     37862     37861     37862
     37863     37864     37863     37865     37864     37865     37866     37867
     37866     37868     37867     37868     37869     37870     37869     37871
     37870     37871     37872     37873     37872     37874     37873     37874
     37875     37876     37875     37877     37876     37877     37878     37879
     37878     37880     37879     37880     37881     37882     37881     37883
     37882     37883     37884     37885     37884     37886     37885     37886
     37887     37888     37887     37889     37888     37889     37890     37891
     37890     37892     37891     37892     37893     37894     37893     37895
     37894     37895     37896     37897     37896     37898     37897     37898
     37899     37900     37899     37901     37900     37901     37902     37903
     37902     37904     37903     37904     37905     37906     37905     37907
     37906     37907     37908     37909     37908     37910     37909     37910
     37911     37912     37911     37913     37912     37913     37914     37915
     37914     37916     37915     37916     37917     37918     37917     37919
     37918     37919     37920     37921     37920     37922     37921     37922
     37923     37924     37923     37925     37924     37925     37926     37927
     37926     37928     37927     37928     37929     37930     37929     37931
     37930     37931     37932     37933     37932     37934     37933     37934
     37935     37936     37935     37937     37936     37937     37938     37939
     37938     37940     37939     37940     37941     37942     37941     37943
     37942     37943     37944     37945     37944     37946     37945     37946
     37947     37948     37947     37949     37948     37949     37950     37951
     37950     37952     37951     37952     37953     37954     37953     37955
     37954     37955     37956     37957     37956     37958     37957     37958
     37959     37960     37959     37961     37960     37961     37962     37963
     37962     37964     37963     37964     37965     37966     37965     37967
     37966     37967     37968     37969     37968     37970     37969     37970
     37971     37972     37971     37973     37972     37973     37974     37975
     37974     37976     37975     37976     37977     37978     37977     37979
     37978     37979     37980     37981     37980     37982     37981     37982
     37983     37984     37983     37985     37984     37985     37986     37987
     37986     37988     37987     37988     37989     37990     37989     37991
     37990     37991     37992     37993     37992     37994     37993     37994
     37995     37996     37995     37997     37996     37997     37998     37999
     37998     38000     37999     38000     38001     38002     38001     38003
     38002     38003     38004     38005     38004     38006     38005     38006
     38007     38008     38007     38009     38008     38009     38010     38011
     38010     38012     38011     38012     38013     38014     38013     38015
     38014     38015     38016     38017     38016     38018     38017     38018
     38019     38020     38019     38021     38020     38021     38022     38023
     38022     38024     38023     38024     38025     38026     38025     38027
     38026     38027     38028     38029     38028     38030     38029     38030
     38031     38032     38031     38033     38032     38033     38034     38035
     38034     38036     38035     38036     38037     38038     38037     38039
     38038     38039     38040     38041     38040     38042     38041     38042
     38043     38044     38043     38045     38044     38045     38046     38047
     38046     38048     38047     38048     38049     38050     38049     38051
     38050     38051     38052     38053     38052     38054     38053     38054
     38055     38056     38055     38057     38056     38057     38058     38059
     38058     38060     38059     38060     38061     38062     38061     38063
     38062     38063     38064     38065     38064     38066     38065     38066
     38067     38068     38067     38069     38068     38069     38070     38071
     38070     38072     38071     38072     38073     38074     38073     38075
     38074     38075     38076     38077     38076     38078     38077     38078
     38079     38080     38079     38081     38080     38081     38082     38083
     38082     38084     38083     38084     38085     38086     38085     38087
     38086     38087     38088     38089     38088     38090     38089     38090
     38091     38092     38091     38093     38092     38093     38094     38095
     38094     38096     38095     38096     38097     38098     38097     38099
     38098     38099     38100     38101     38100     38102     38101     38102
     38103     38104     38103     38105     38104     38105     38106     38107
     38106     38108     38107     38108     38109     38110     38109     38111
     38110     38111     38112     38113     38112     38114     38113     38114
     38115     38116     38115     38117     38116     38117     38118     38119
     38118     38120     38119     38120     38121     38122     38121     38123
     38122     38123     38124     38125     38124     38126     38125     38126
     38127     38128     38127     38129     38128     38129     38130     38131
     38130     38132     38131     38132     38133     38134     38133     38135
     38134     38135     38136     38137     38136     38138     38137     38138
     38139     38140     38139     38141     38140     38141     38142     38143
     38142     38144     38143     38144     38145     38146     38145     38147
     38146     38147     38148     38149     38148     38150     38149     38150
     38151     38152     38151     38153     38152     38153     38154     38155
     38154     38156     38155     38156     38157     38158     38157     38159
     38158     38159     38160     38161     38160     38162     38161     38162
     38163     38164     38163     38165     38164     38165     38166     38167
     38166     38168     38167     38168     38169     38170     38169     38171
     38170     38171     38172     38173     38172     38174     38173     38174
     38175     38176     38175     38177     38176     38177     38178     38179
     38178     38180     38179     38180     38181     38182     38181     38183
     38182     38183     38184     38185     38184     38186     38185     38186
     38187     38188     38187     38189     38188     38189     38190     38191
     38190     38192     38191     38192     38193     38194     38193     38195
     38194     38195     38196     38197     38196     38198     38197     38198
     38199     38200     38199     38201     38200     38201     38202     38203
     38202     38204     38203     38204     38205     38206     38205     38207
     38206     38207     38208     38209     38208     38210     38209     38210
     38211     38212     38211     38213     38212     38213     38214     38215
     38214     38216     38215     38216     38217     38218     38217     38219
     38218     38219     38220     38221     38220     38222     38221     38222
     38223     38224     38223     38225     38224     38225     38226     38227
     38226     38228     38227     38228     38229     38230     38229     38231
     38230     38231     38232     38233     38232     38234     38233     38234
     38235     38236     38235     38237     38236     38237     38238     38239
     38238     38240     38239     38240     38241     38242     38241     38243
     38242     38243     38244     38245     38244     38246     38245     38246
     38247     38248     38247     38249     38248     38249     38250     38251
     38250     38252     38251     38252     38253     38254     38253     38255
     38254     38255     38256     38257     38256     38258     38257     38258
     38259     38260     38259     38261     38260     38261     38262     38263
     38262     38264     38263     38264     38265     38266     38265     38267
     38266     38267     38268     38269     38268     38270     38269     38270
     38271     38272     38271     38273     38272     38273     38274     38275
     38274     38276     38275     38276     38277     38278     38277     38279
     38278     38279     38280     38281     38280     38282     38281     38282
     38283     38284     38283     38285     38284     38285     38286     38287
     38286     38288     38287     38288     38289     38290     38289     38291
     38290     38291     38292     38293     38292     38294     38293     38294
     38295     38296     38295     38297     38296     38297     38298     38299
     38298     38300     38299     38300     38301     38302     38301     38303
     38302     38303     38304     38305     38304     38306     38305     38306
     38307     38308     38307     38309     38308     38309     38310     38311
     38310     38312     38311     38312     38313     38314     38313     38315
     38314     38315     38316     38317     38316     38318     38317     38318
     38319     38320     38319     38321     38320     38321     38322     38323
     38322     38324     38323     38324     38325     38326     38325     38327
     38326     38327     38328     38329     38328     38330     38329     38330
     38331     38332     38331     38333     38332     38333     38334     38335
     38334     38336     38335     38336     38337     38338     38337     38339
     38338     38339     38340     38341     38340     38342     38341     38342
     38343     38344     38343     38345     38344     38345     38346     38347
     38346     38348     38347     38348     38349     38350     38349     38351
     38350     38351     38352     38353     38352     38354     38353     38354
     38355     38356     38355     38357     38356     38357     38358     38359
     38358     38360     38359     38360     38361     38362     38361     38363
     38362     38363     38364     38365     38364     38366     38365     38366
     38367     38368     38367     38369     38368     38369     38370     38371
     38370     38372     38371     38372     38373     38374     38373     38375
     38374     38375     38376     38377     38376     38378     38377     38378
     38379     38380     38379     38381     38380     38381     38382     38383
     38382     38384     38383     38384     38385     38386     38385     38387
     38386     38387     38388     38389     38388     38390     38389     38390
     38391     38392     38391     38393     38392     38393     38394     38395
     38394     38396     38395     38396     38397     38398     38397     38399
     38398     38399     38400     38401     38400     38402     38401     38402
     38403     38404     38403     38405     38404     38405     38406     38407
     38406     38408     38407     38408     38409     38410     38409     38411
     38410     38411     38412     38413     38412     38414     38413     38414
     38415     38416     38415     38417     38416     38417     38418     38419
     38418     38420     38419     38420     38421     38422     38421     38423
     38422     38423     38424     38425     38424     38426     38425     38426
     38427     38428     38427     38429     38428     38429     38430     38431
     38430     38432     38431     38432     38433     38434     38433     38435
     38434     38435     38436     38437     38436     38438     38437     38438
     38439     38440     38439     38441     38440     38441     38442     38443
     38442     38444     38443     38444     38445     38446     38445     38447
     38446     38447     38448     38449     38448     38450     38449     38450
     38451     38452     38451     38453     38452     38453     38454     38455
     38454     38456     38455     38456     38457     38458     38457     38459
     38458     38459     38460     38461     38460     38462     38461     38462
     38463     38464     38463     38465     38464     38465     38466     38467
     38466     38468     38467     38468     38469     38470     38469     38471
     38470     38471     38472     38473     38472     38474     38473     38474
     38475     38476     38475     38477     38476     38477     38478     38479
     38478     38480     38479     38480     38481     38482     38481     38483
     38482     38483     38484     38485     38484     38486     38485     38486
     38487     38488     38487     38489     38488     38489     38490     38491
     38490     38492     38491     38492     38493     38494     38493     38495
     38494     38495     38496     38497     38496     38498     38497     38498
     38499     38500     38499     38501     38500     38501     38502     38503
     38502     38504     38503     38504     38505     38506     38505     38507
     38506     38507     38508     38509     38508     38510     38509     38510
     38511     38512     38511     38513     38512     38513     38514     38515
     38514     38516     38515     38516     38517     38518     38517     38519
     38518     38519     38520     38521     38520     38522     38521     38522
     38523     38524     38523     38525     38524     38525     38526     38527
     38526     38528     38527     38528     38529     38530     38529     38531
     38530     38531     38532     38533     38532     38534     38533     38534
     38535     38536     38535     38537     38536     38537     38538     38539
     38538     38540     38539     38540     38541     38542     38541     38543
     38542     38543     38544     38545     38544     38546     38545     38546
     38547     38548     38547     38549     38548     38549     38550     38551
     38550     38552     38551     38552     38553     38554     38553     38555
     38554     38555     38556     38557     38556     38558     38557     38558
     38559     38560     38559     38561     38560     38561     38562     38563
     38562     38564     38563     38564     38565     38566     38565     38567
     38566     38567     38568     38569     38568     38570     38569     38570
     38571     38572     38571     38573     38572     38573     38574     38575
     38574     38576     38575     38576     38577     38578     38577     38579
     38578     38579     38580     38581     38580     38582     38581     38582
     38583     38584     38583     38585     38584     38585     38586     38587
     38586     38588     38587     38588     38589     38590     38589     38591
     38590     38591     38592     38593     38592     38594     38593     38594
     38595     38596     38595     38597     38596     38597     38598     38599
     38598     38600     38599     38600     38601     38602     38601     38603
     38602     38603     38604     38605     38604     38606     38605     38606
     38607     38608     38607     38609     38608     38609     38610     38611
     38610     38612     38611     38612     38613     38614     38613     38615
     38614     38615     38616     38617     38616     38618     38617     38618
     38619     38620     38619     38621     38620     38621     38622     38623
     38622     38624     38623     38624     38625     38626     38625     38627
     38626     38627     38628     38629     38628     38630     38629     38630
     38631     38632     38631     38633     38632     38633     38634     38635
     38634     38636     38635     38636     38637     38638     38637     38639
     38638     38639     38640     38641     38640     38642     38641     38642
     38643     38644     38643     38645     38644     38645     38646     38647
     38646     38648     38647     38648     38649     38650     38649     38651
     38650     38651     38652     38653     38652     38654     38653     38654
     38655     38656     38655     38657     38656     38657     38658     38659
     38658     38660     38659     38660     38661     38662     38661     38663
     38662     38663     38664     38665     38664     38666     38665     38666
     38667     38668     38667     38669     38668     38669     38670     38671
     38670     38672     38671     38672     38673     38674     38673     38675
     38674     38675     38676     38677     38676     38678     38677     38678
     38679     38680     38679     38681     38680     38681     38682     38683
     38682     38684     38683     38684     38685     38686     38685     38687
     38686     38687     38688     38689     38688     38690     38689     38690
     38691     38692     38691     38693     38692     38693     38694     38695
     38694     38696     38695     38696     38697     38698     38697     38699
     38698     38699     38700     38701     38700     38702     38701     38702
     38703     38704     38703     38705     38704     38705     38706     38707
     38706     38708     38707     38708     38709     38710     38709     38711
     38710     38711     38712     38713     38712     38714     38713     38714
     38715     38716     38715     38717     38716     38717     38718     38719
     38718     38720     38719     38720     38721     38722     38721     38723
     38722     38723     38724     38725     38724     38726     38725     38726
     38727     38728     38727     38729     38728     38729     38730     38731
     38730     38732     38731     38732     38733     38734     38733     38735
     38734     38735     38736     38737     38736     38738     38737     38738
     38739     38740     38739     38741     38740     38741     38742     38743
     38742     38744     38743     38744     38745     38746     38745     38747
     38746     38747     38748     38749     38748     38750     38749     38750
     38751     38752     38751     38753     38752     38753     38754     38755
     38754     38756     38755     38756     38757     38758     38757     38759
     38758     38759     38760     38761     38760     38762     38761     38762
     38763     38764     38763     38765     38764     38765     38766     38767
     38766     38768     38767     38768     38769     38770     38769     38771
     38770     38771     38772     38773     38772     38774     38773     38774
     38775     38776     38775     38777     38776     38777     38778     38779
     38778     38780     38779     38780     38781     38782     38781     38783
     38782     38783     38784     38785     38784     38786     38785     38786
     38787     38788     38787     38789     38788     38789     38790     38791
     38790     38792     38791     38792     38793     38794     38793     38795
     38794     38795     38796     38797     38796     38798     38797     38798
     38799     38800     38799     38801     38800     38801     38802     38803
     38802     38804     38803     38804     38805     38806     38805     38807
     38806     38807     38808     38809     38808     38810     38809     38810
     38811     38812     38811     38813     38812     38813     38814     38815
     38814     38816     38815     38816     38817     38818     38817     38819
     38818     38819     38820     38821     38820     38822     38821     38822
     38823     38824     38823     38825     38824     38825     38826     38827
     38826     38828     38827     38828     38829     38830     38829     38831
     38830     38831     38832     38833     38832     38834     38833     38834
     38835     38836     38835     38837     38836     38837     38838     38839
     38838     38840     38839     38840     38841     38842     38841     38843
     38842     38843     38844     38845     38844     38846     38845     38846
     38847     38848     38847     38849     38848     38849     38850     38851
     38850     38852     38851     38852     38853     38854     38853     38855
     38854     38855     38856     38857     38856     38858     38857     38858
     38859     38860     38859     38861     38860     38861     38862     38863
     38862     38864     38863     38864     38865     38866     38865     38867
     38866     38867     38868     38869     38868     38870     38869     38870
     38871     38872     38871     38873     38872     38873     38874     38875
     38874     38876     38875     38876     38877     38878     38877     38879
     38878     38879     38880     38881     38880     38882     38881     38882
     38883     38884     38883     38885     38884     38885     38886     38887
     38886     38888     38887     38888     38889     38890     38889     38891
     38890     38891     38892     38893     38892     38894     38893     38894
     38895     38896     38895     38897     38896     38897     38898     38899
     38898     38900     38899     38900     38901     38902     38901     38903
     38902     38903     38904     38905     38904     38906     38905     38906
     38907     38908     38907     38909     38908     38909     38910     38911
     38910     38912     38911     38912     38913     38914     38913     38915
     38914     38915     38916     38917     38916     38918     38917     38918
     38919     38920     38919     38921     38920     38921     38922     38923
     38922     38924     38923     38924     38925     38926     38925     38927
     38926     38927     38928     38929     38928     38930     38929     38930
     38931     38932     38931     38933     38932     38933     38934     38935
     38934     38936     38935     38936     38937     38938     38937     38939
     38938     38939     38940     38941     38940     38942     38941     38942
     38943     38944     38943     38945     38944     38945     38946     38947
     38946     38948     38947     38948     38949     38950     38949     38951
     38950     38951     38952     38953     38952     38954     38953     38954
     38955     38956     38955     38957     38956     38957     38958     38959
     38958     38960     38959     38960     38961     38962     38961     38963
     38962     38963     38964     38965     38964     38966     38965     38966
     38967     38968     38967     38969     38968     38969     38970     38971
     38970     38972     38971     38972     38973     38974     38973     38975
     38974     38975     38976     38977     38976     38978     38977     38978
     38979     38980     38979     38981     38980     38981     38982     38983
     38982     38984     38983     38984     38985     38986     38985     38987
     38986     38987     38988     38989     38988     38990     38989     38990
     38991     38992     38991     38993     38992     38993     38994     38995
     38994     38996     38995     38996     38997     38998     38997     38999
     38998     38999     39000     39001     39000     39002     39001     39002
     39003     39004     39003     39005     39004     39005     39006     39007
     39006     39008     39007     39008     39009     39010     39009     39011
     39010     39011     39012     39013     39012     39014     39013     39014
     39015     39016     39015     39017     39016     39017     39018     39019
     39018     39020     39019     39020     39021     39022     39021     39023
     39022     39023     39024     39025     39024     39026     39025     39026
     39027     39028     39027     39029     39028     39029     39030     39031
     39030     39032     39031     39032     39033     39034     39033     39035
     39034     39035     39036     39037     39036     39038     39037     39038
     39039     39040     39039     39041     39040     39041     39042     39043
     39042     39044     39043     39044     39045     39046     39045     39047
     39046     39047     39048     39049     39048     39050     39049     39050
     39051     39052     39051     39053     39052     39053     39054     39055
     39054     39056     39055     39056     39057     39058     39057     39059
     39058     39059     39060     39061     39060     39062     39061     39062
     39063     39064     39063     39065     39064     39065     39066     39067
     39066     39068     39067     39068     39069     39070     39069     39071
     39070     39071     39072     39073     39072     39074     39073     39074
     39075     39076     39075     39077     39076     39077     39078     39079
     39078     39080     39079     39080     39081     39082     39081     39083
     39082     39083     39084     39085     39084     39086     39085     39086
     39087     39088     39087     39089     39088     39089     39090     39091
     39090     39092     39091     39092     39093     39094     39093     39095
     39094     39095     39096     39097     39096     39098     39097     39098
     39099     39100     39099     39101     39100     39101     39102     39103
     39102     39104     39103     39104     39105     39106     39105     39107
     39106     39107     39108     39109     39108     39110     39109     39110
     39111     39112     39111     39113     39112     39113     39114     39115
     39114     39116     39115     39116     39117     39118     39117     39119
     39118     39119     39120     39121     39120     39122     39121     39122
     39123     39124     39123     39125     39124     39125     39126     39127
     39126     39128     39127     39128     39129     39130     39129     39131
     39130     39131     39132     39133     39132     39134     39133     39134
     39135     39136     39135     39137     39136     39137     39138     39139
     39138     39140     39139     39140     39141     39142     39141     39143
     39142     39143     39144     39145     39144     39146     39145     39146
     39147     39148     39147     39149     39148     39149     39150     39151
     39150     39152     39151     39152     39153     39154     39153     39155
     39154     39155     39156     39157     39156     39158     39157     39158
     39159     39160     39159     39161     39160     39161     39162     39163
     39162     39164     39163     39164     39165     39166     39165     39167
     39166     39167     39168     39169     39168     39170     39169     39170
     39171     39172     39171     39173     39172     39173     39174     39175
     39174     39176     39175     39176     39177     39178     39177     39179
     39178     39179     39180     39181     39180     39182     39181     39182
     39183     39184     39183     39185     39184     39185     39186     39187
     39186     39188     39187     39188     39189     39190     39189     39191
     39190     39191     39192     39193     39192     39194     39193     39194
     39195     39196     39195     39197     39196     39197     39198     39199
     39198     39200     39199     39200     39201     39202     39201     39203
     39202     39203     39204     39205     39204     39206     39205     39206
     39207     39208     39207     39209     39208     39209     39210     39211
     39210     39212     39211     39212     39213     39214     39213     39215
     39214     39215     39216     39217     39216     39218     39217     39218
     39219     39220     39219     39221     39220     39221     39222     39223
     39222     39224     39223     39224     39225     39226     39225     39227
     39226     39227     39228     39229     39228     39230     39229     39230
     39231     39232     39231     39233     39232     39233     39234     39235
     39234     39236     39235     39236     39237     39238     39237     39239
     39238     39239     39240     39241     39240     39242     39241     39242
     39243     39244     39243     39245     39244     39245     39246     39247
     39246     39248     39247     39248     39249     39250     39249     39251
     39250     39251     39252     39253     39252     39254     39253     39254
     39255     39256     39255     39257     39256     39257     39258     39259
     39258     39260     39259     39260     39261     39262     39261     39263
     39262     39263     39264     39265     39264     39266     39265     39266
     39267     39268     39267     39269     39268     39269     39270     39271
     39270     39272     39271     39272     39273     39274     39273     39275
     39274     39275     39276     39277     39276     39278     39277     39278
     39279     39280     39279     39281     39280     39281     39282     39283
     39282     39284     39283     39284     39285     39286     39285     39287
     39286     39287     39288     39289     39288     39290     39289     39290
     39291     39292     39291     39293     39292     39293     39294     39295
     39294     39296     39295     39296     39297     39298     39297     39299
     39298     39299     39300     39301     39300     39302     39301     39302
     39303     39304     39303     39305     39304     39305     39306     39307
     39306     39308     39307     39308     39309     39310     39309     39311
     39310     39311     39312     39313     39312     39314     39313     39314
     39315     39316     39315     39317     39316     39317     39318     39319
     39318     39320     39319     39320     39321     39322     39321     39323
     39322     39323     39324     39325     39324     39326     39325     39326
     39327     39328     39327     39329     39328     39329     39330     39331
     39330     39332     39331     39332     39333     39334     39333     39335
     39334     39335     39336     39337     39336     39338     39337     39338
     39339     39340     39339     39341     39340     39341     39342     39343
     39342     39344     39343     39344     39345     39346     39345     39347
     39346     39347     39348     39349     39348     39350     39349     39350
     39351     39352     39351     39353     39352     39353     39354     39355
     39354     39356     39355     39356     39357     39358     39357     39359
     39358     39359     39360     39361     39360     39362     39361     39362
     39363     39364     39363     39365     39364     39365     39366     39367
     39366     39368     39367     39368     39369     39370     39369     39371
     39370     39371     39372     39373     39372     39374     39373     39374
     39375     39376     39375     39377     39376     39377     39378     39379
     39378     39380     39379     39380     39381     39382     39381     39383
     39382     39383     39384     39385     39384     39386     39385     39386
     39387     39388     39387     39389     39388     39389     39390     39391
     39390     39392     39391     39392     39393     39394     39393     39395
     39394     39395     39396     39397     39396     39398     39397     39398
     39399     39400     39399     39401     39400     39401     39402     39403
     39402     39404     39403     39404     39405     39406     39405     39407
     39406     39407     39408     39409     39408     39410     39409     39410
     39411     39412     39411     39413     39412     39413     39414     39415
     39414     39416     39415     39416     39417     39418     39417     39419
     39418     39419     39420     39421     39420     39422     39421     39422
     39423     39424     39423     39425     39424     39425     39426     39427
     39426     39428     39427     39428     39429     39430     39429     39431
     39430     39431     39432     39433     39432     39434     39433     39434
     39435     39436     39435     39437     39436     39437     39438     39439
     39438     39440     39439     39440     39441     39442     39441     39443
     39442     39443     39444     39445     39444     39446     39445     39446
     39447     39448     39447     39449     39448     39449     39450     39451
     39450     39452     39451     39452     39453     39454     39453     39455
     39454     39455     39456     39457     39456     39458     39457     39458
     39459     39460     39459     39461     39460     39461     39462     39463
     39462     39464     39463     39464     39465     39466     39465     39467
     39466     39467     39468     39469     39468     39470     39469     39470
     39471     39472     39471     39473     39472     39473     39474     39475
     39474     39476     39475     39476     39477     39478     39477     39479
     39478     39479     39480     39481     39480     39482     39481     39482
     39483     39484     39483     39485     39484     39485     39486     39487
     39486     39488     39487     39488     39489     39490     39489     39491
     39490     39491     39492     39493     39492     39494     39493     39494
     39495     39496     39495     39497     39496     39497     39498     39499
     39498     39500     39499     39500     39501     39502     39501     39503
     39502     39503     39504     39505     39504     39506     39505     39506
     39507     39508     39507     39509     39508     39509     39510     39511
     39510     39512     39511     39512     39513     39514     39513     39515
     39514     39515     39516     39517     39516     39518     39517     39518
     39519     39520     39519     39521     39520     39521     39522     39523
     39522     39524     39523     39524     39525     39526     39525     39527
     39526     39527     39528     39529     39528     39530     39529     39530
     39531     39532     39531     39533     39532     39533     39534     39535
     39534     39536     39535     39536     39537     39538     39537     39539
     39538     39539     39540     39541     39540     39542     39541     39542
     39543     39544     39543     39545     39544     39545     39546     39547
     39546     39548     39547     39548     39549     39550     39549     39551
     39550     39551     39552     39553     39552     39554     39553     39554
     39555     39556     39555     39557     39556     39557     39558     39559
     39558     39560     39559     39560     39561     39562     39561     39563
     39562     39563     39564     39565     39564     39566     39565     39566
     39567     39568     39567     39569     39568     39569     39570     39571
     39570     39572     39571     39572     39573     39574     39573     39575
     39574     39575     39576     39577     39576     39578     39577     39578
     39579     39580     39579     39581     39580     39581     39582     39583
     39582     39584     39583     39584     39585     39586     39585     39587
     39586     39587     39588     39589     39588     39590     39589     39590
     39591     39592     39591     39593     39592     39593     39594     39595
     39594     39596     39595     39596     39597     39598     39597     39599
     39598     39599     39600     39601     39600     39602     39601     39602
     39603     39604     39603     39605     39604     39605     39606     39607
     39606     39608     39607     39608     39609     39610     39609     39611
     39610     39611     39612     39613     39612     39614     39613     39614
     39615     39616     39615     39617     39616     39617     39618     39619
     39618     39620     39619     39620     39621     39622     39621     39623
     39622     39623     39624     39625     39624     39626     39625     39626
     39627     39628     39627     39629     39628     39629     39630     39631
     39630     39632     39631     39632     39633     39634     39633     39635
     39634     39635     39636     39637     39636     39638     39637     39638
     39639     39640     39639     39641     39640     39641     39642     39643
     39642     39644     39643     39644     39645     39646     39645     39647
     39646     39647     39648     39649     39648     39650     39649     39650
     39651     39652     39651     39653     39652     39653     39654     39655
     39654     39656     39655     39656     39657     39658     39657     39659
     39658     39659     39660     39661     39660     39662     39661     39662
     39663     39664     39663     39665     39664     39665     39666     39667
     39666     39668     39667     39668     39669     39670     39669     39671
     39670     39671     39672     39673     39672     39674     39673     39674
     39675     39676     39675     39677     39676     39677     39678     39679
     39678     39680     39679     39680     39681     39682     39681     39683
     39682     39683     39684     39685     39684     39686     39685     39686
     39687     39688     39687     39689     39688     39689     39690     39691
     39690     39692     39691     39692     39693     39694     39693     39695
     39694     39695     39696     39697     39696     39698     39697     39698
     39699     39700     39699     39701     39700     39701     39702     39703
     39702     39704     39703     39704     39705     39706     39705     39707
     39706     39707     39708     39709     39708     39710     39709     39710
     39711     39712     39711     39713     39712     39713     39714     39715
     39714     39716     39715     39716     39717     39718     39717     39719
     39718     39719     39720     39721     39720     39722     39721     39722
     39723     39724     39723     39725     39724     39725     39726     39727
     39726     39728     39727     39728     39729     39730     39729     39731
     39730     39731     39732     39733     39732     39734     39733     39734
     39735     39736     39735     39737     39736     39737     39738     39739
     39738     39740     39739     39740     39741     39742     39741     39743
     39742     39743     39744     39745     39744     39746     39745     39746
     39747     39748     39747     39749     39748     39749     39750     39751
     39750     39752     39751     39752     39753     39754     39753     39755
     39754     39755     39756     39757     39756     39758     39757     39758
     39759     39760     39759     39761     39760     39761     39762     39763
     39762     39764     39763     39764     39765     39766     39765     39767
     39766     39767     39768     39769     39768     39770     39769     39770
     39771     39772     39771     39773     39772     39773     39774     39775
     39774     39776     39775     39776     39777     39778     39777     39779
     39778     39779     39780     39781     39780     39782     39781     39782
     39783     39784     39783     39785     39784     39785     39786     39787
     39786     39788     39787     39788     39789     39790     39789     39791
     39790     39791     39792     39793     39792     39794     39793     39794
     39795     39796     39795     39797     39796     39797     39798     39799
     39798     39800     39799     39800     39801     39802     39801     39803
     39802     39803     39804     39805     39804     39806     39805     39806
     39807     39808     39807     39809     39808     39809     39810     39811
     39810     39812     39811     39812     39813     39814     39813     39815
     39814     39815     39816     39817     39816     39818     39817     39818
     39819     39820     39819     39821     39820     39821     39822     39823
     39822     39824     39823     39824     39825     39826     39825     39827
     39826     39827     39828     39829     39828     39830     39829     39830
     39831     39832     39831     39833     39832     39833     39834     39835
     39834     39836     39835     39836     39837     39838     39837     39839
     39838     39839     39840     39841     39840     39842     39841     39842
     39843     39844     39843     39845     39844     39845     39846     39847
     39846     39848     39847     39848     39849     39850     39849     39851
     39850     39851     39852     39853     39852     39854     39853     39854
     39855     39856     39855     39857     39856     39857     39858     39859
     39858     39860     39859     39860     39861     39862     39861     39863
     39862     39863     39864     39865     39864     39866     39865     39866
     39867     39868     39867     39869     39868     39869     39870     39871
     39870     39872     39871     39872     39873     39874     39873     39875
     39874     39875     39876     39877     39876     39878     39877     39878
     39879     39880     39879     39881     39880     39881     39882     39883
     39882     39884     39883     39884     39885     39886     39885     39887
     39886     39887     39888     39889     39888     39890     39889     39890
     39891     39892     39891     39893     39892     39893     39894     39895
     39894     39896     39895     39896     39897     39898     39897     39899
     39898     39899     39900     39901     39900     39902     39901     39902
     39903     39904     39903     39905     39904     39905     39906     39907
     39906     39908     39907     39908     39909     39910     39909     39911
     39910     39911     39912     39913     39912     39914     39913     39914
     39915     39916     39915     39917     39916     39917     39918     39919
     39918     39920     39919     39920     39921     39922     39921     39923
     39922     39923     39924     39925     39924     39926     39925     39926
     39927     39928     39927     39929     39928     39929     39930     39931
     39930     39932     39931     39932     39933     39934     39933     39935
     39934     39935     39936     39937     39936     39938     39937     39938
     39939     39940     39939     39941     39940     39941     39942     39943
     39942     39944     39943     39944     39945     39946     39945     39947
     39946     39947     39948     39949     39948     39950     39949     39950
     39951     39952     39951     39953     39952     39953     39954     39955
     39954     39956     39955     39956     39957     39958     39957     39959
     39958     39959     39960     39961     39960     39962     39961     39962
     39963     39964     39963     39965     39964     39965     39966     39967
     39966     39968     39967     39968     39969     39970     39969     39971
     39970     39971     39972     39973     39972     39974     39973     39974
     39975     39976     39975     39977     39976     39977     39978     39979
     39978     39980     39979     39980     39981     39982     39981     39983
     39982     39983     39984     39985     39984     39986     39985     39986
     39987     39988     39987     39989     39988     39989     39990     39991
     39990     39992     39991     39992     39993     39994     39993     39995
     39994     39995     39996     39997     39996     39998     39997     39998
     39999     40000     39999     40001     40000     40001     40002     40003
     40002     40004     40003     40004     40005     40006     40005     40007
     40006     40007     40008     40009     40008     40010     40009     40010
     40011     40012     40011     40013     40012     40013     40014     40015
     40014     40016     40015     40016     40017     40018     40017     40019
     40018     40019     40020     40021     40020     40022     40021     40022
     40023     40024     40023     40025     40024     40025     40026     40027
     40026     40028     40027     40028     40029     40030     40029     40031
     40030     40031     40032     40033     40032     40034     40033     40034
     40035     40036     40035     40037     40036     40037     40038     40039
     40038     40040     40039     40040     40041     40042     40041     40043
     40042     40043     40044     40045     40044     40046     40045     40046
     40047     40048     40047     40049     40048     40049     40050     40051
     40050     40052     40051     40052     40053     40054     40053     40055
     40054     40055     40056     40057     40056     40058     40057     40058
     40059     40060     40059     40061     40060     40061     40062     40063
     40062     40064     40063     40064     40065     40066     40065     40067
     40066     40067     40068     40069     40068     40070     40069     40070
     40071     40072     40071     40073     40072     40073     40074     40075
     40074     40076     40075     40076     40077     40078     40077     40079
     40078     40079     40080     40081     40080     40082     40081     40082
     40083     40084     40083     40085     40084     40085     40086     40087
     40086     40088     40087     40088     40089     40090     40089     40091
     40090     40091     40092     40093     40092     40094     40093     40094
     40095     40096     40095     40097     40096     40097     40098     40099
     40098     40100     40099     40100     40101     40102     40101     40103
     40102     40103     40104     40105     40104     40106     40105     40106
     40107     40108     40107     40109     40108     40109     40110     40111
     40110     40112     40111     40112     40113     40114     40113     40115
     40114     40115     40116     40117     40116     40118     40117     40118
     40119     40120     40119     40121     40120     40121     40122     40123
     40122     40124     40123     40124     40125     40126     40125     40127
     40126     40127     40128     40129     40128     40130     40129     40130
     40131     40132     40131     40133     40132     40133     40134     40135
     40134     40136     40135     40136     40137     40138     40137     40139
     40138     40139     40140     40141     40140     40142     40141     40142
     40143     40144     40143     40145     40144     40145     40146     40147
     40146     40148     40147     40148     40149     40150     40149     40151
     40150     40151     40152     40153     40152     40154     40153     40154
     40155     40156     40155     40157     40156     40157     40158     40159
     40158     40160     40159     40160     40161     40162     40161     40163
     40162     40163     40164     40165     40164     40166     40165     40166
     40167     40168     40167     40169     40168     40169     40170     40171
     40170     40172     40171     40172     40173     40174     40173     40175
     40174     40175     40176     40177     40176     40178     40177     40178
     40179     40180     40179     40181     40180     40181     40182     40183
     40182     40184     40183     40184     40185     40186     40185     40187
     40186     40187     40188     40189     40188     40190     40189     40190
     40191     40192     40191     40193     40192     40193     40194     40195
     40194     40196     40195     40196     40197     40198     40197     40199
     40198     40199     40200     40201     40200     40202     40201     40202
     40203     40204     40203     40205     40204     40205     40206     40207
     40206     40208     40207     40208     40209     40210     40209     40211
     40210     40211     40212     40213     40212     40214     40213     40214
     40215     40216     40215     40217     40216     40217     40218     40219
     40218     40220     40219     40220     40221     40222     40221     40223
     40222     40223     40224     40225     40224     40226     40225     40226
     40227     40228     40227     40229     40228     40229     40230     40231
     40230     40232     40231     40232     40233     40234     40233     40235
     40234     40235     40236     40237     40236     40238     40237     40238
     40239     40240     40239     40241     40240     40241     40242     40243
     40242     40244     40243     40244     40245     40246     40245     40247
     40246     40247     40248     40249     40248     40250     40249     40250
     40251     40252     40251     40253     40252     40253     40254     40255
     40254     40256     40255     40256     40257     40258     40257     40259
     40258     40259     40260     40261     40260     40262     40261     40262
     40263     40264     40263     40265     40264     40265     40266     40267
     40266     40268     40267     40268     40269     40270     40269     40271
     40270     40271     40272     40273     40272     40274     40273     40274
     40275     40276     40275     40277     40276     40277     40278     40279
     40278     40280     40279     40280     40281     40282     40281     40283
     40282     40283     40284     40285     40284     40286     40285     40286
     40287     40288     40287     40289     40288     40289     40290     40291
     40290     40292     40291     40292     40293     40294     40293     40295
     40294     40295     40296     40297     40296     40298     40297     40298
     40299     40300     40299     40301     40300     40301     40302     40303
     40302     40304     40303     40304     40305     40306     40305     40307
     40306     40307     40308     40309     40308     40310     40309     40310
     40311     40312     40311     40313     40312     40313     40314     40315
     40314     40316     40315     40316     40317     40318     40317     40319
     40318     40319     40320     40321     40320     40322     40321     40322
     40323     40324     40323     40325     40324     40325     40326     40327
     40326     40328     40327     40328     40329     40330     40329     40331
     40330     40331     40332     40333     40332     40334     40333     40334
     40335     40336     40335     40337     40336     40337     40338     40339
     40338     40340     40339     40340     40341     40342     40341     40343
     40342     40343     40344     40345     40344     40346     40345     40346
     40347     40348     40347     40349     40348     40349     40350     40351
     40350     40352     40351     40352     40353     40354     40353     40355
     40354     40355     40356     40357     40356     40358     40357     40358
     40359     40360     40359     40361     40360     40361     40362     40363
     40362     40364     40363     40364     40365     40366     40365     40367
     40366     40367     40368     40369     40368     40370     40369     40370
     40371     40372     40371     40373     40372     40373     40374     40375
     40374     40376     40375     40376     40377     40378     40377     40379
     40378     40379     40380     40381     40380     40382     40381     40382
     40383     40384     40383     40385     40384     40385     40386     40387
     40386     40388     40387     40388     40389     40390     40389     40391
     40390     40391     40392     40393     40392     40394     40393     40394
     40395     40396     40395     40397     40396     40397     40398     40399
     40398     40400     40399     40400     40401     40402     40401     40403
     40402     40403     40404     40405     40404     40406     40405     40406
     40407     40408     40407     40409     40408     40409     40410     40411
     40410     40412     40411     40412     40413     40414     40413     40415
     40414     40415     40416     40417     40416     40418     40417     40418
     40419     40420     40419     40421     40420     40421     40422     40423
     40422     40424     40423     40424     40425     40426     40425     40427
     40426     40427     40428     40429     40428     40430     40429     40430
     40431     40432     40431     40433     40432     40433     40434     40435
     40434     40436     40435     40436     40437     40438     40437     40439
     40438     40439     40440     40441     40440     40442     40441     40442
     40443     40444     40443     40445     40444     40445     40446     40447
     40446     40448     40447     40448     40449     40450     40449     40451
     40450     40451     40452     40453     40452     40454     40453     40454
     40455     40456     40455     40457     40456     40457     40458     40459
     40458     40460     40459     40460     40461     40462     40461     40463
     40462     40463     40464     40465     40464     40466     40465     40466
     40467     40468     40467     40469     40468     40469     40470     40471
     40470     40472     40471     40472     40473     40474     40473     40475
     40474     40475     40476     40477     40476     40478     40477     40478
     40479     40480     40479     40481     40480     40481     40482     40483
     40482     40484     40483     40484     40485     40486     40485     40487
     40486     40487     40488     40489     40488     40490     40489     40490
     40491     40492     40491     40493     40492     40493     40494     40495
     40494     40496     40495     40496     40497     40498     40497     40499
     40498     40499     40500     40501     40500     40502     40501     40502
     40503     40504     40503     40505     40504     40505     40506     40507
     40506     40508     40507     40508     40509     40510     40509     40511
     40510     40511     40512     40513     40512     40514     40513     40514
     40515     40516     40515     40517     40516     40517     40518     40519
     40518     40520     40519     40520     40521     40522     40521     40523
     40522     40523     40524     40525     40524     40526     40525     40526
     40527     40528     40527     40529     40528     40529     40530     40531
     40530     40532     40531     40532     40533     40534     40533     40535
     40534     40535     40536     40537     40536     40538     40537     40538
     40539     40540     40539     40541     40540     40541     40542     40543
     40542     40544     40543     40544     40545     40546     40545     40547
     40546     40547     40548     40549     40548     40550     40549     40550
     40551     40552     40551     40553     40552     40553     40554     40555
     40554     40556     40555     40556     40557     40558     40557     40559
     40558     40559     40560     40561     40560     40562     40561     40562
     40563     40564     40563     40565     40564     40565     40566     40567
     40566     40568     40567     40568     40569     40570     40569     40571
     40570     40571     40572     40573     40572     40574     40573     40574
     40575     40576     40575     40577     40576     40577     40578     40579
     40578     40580     40579     40580     40581     40582     40581     40583
     40582     40583     40584     40585     40584     40586     40585     40586
     40587     40588     40587     40589     40588     40589     40590     40591
     40590     40592     40591     40592     40593     40594     40593     40595
     40594     40595     40596     40597     40596     40598     40597     40598
     40599     40600     40599     40601     40600     40601     40602     40603
     40602     40604     40603     40604     40605     40606     40605     40607
     40606     40607     40608     40609     40608     40610     40609     40610
     40611     40612     40611     40613     40612     40613     40614     40615
     40614     40616     40615     40616     40617     40618     40617     40619
     40618     40619     40620     40621     40620     40622     40621     40622
     40623     40624     40623     40625     40624     40625     40626     40627
     40626     40628     40627     40628     40629     40630     40629     40631
     40630     40631     40632     40633     40632     40634     40633     40634
     40635     40636     40635     40637     40636     40637     40638     40639
     40638     40640     40639     40640     40641     40642     40641     40643
     40642     40643     40644     40645     40644     40646     40645     40646
     40647     40648     40647     40649     40648     40649     40650     40651
     40650     40652     40651     40652     40653     40654     40653     40655
     40654     40655     40656     40657     40656     40658     40657     40658
     40659     40660     40659     40661     40660     40661     40662     40663
     40662     40664     40663     40664     40665     40666     40665     40667
     40666     40667     40668     40669     40668     40670     40669     40670
     40671     40672     40671     40673     40672     40673     40674     40675
     40674     40676     40675     40676     40677     40678     40677     40679
     40678     40679     40680     40681     40680     40682     40681     40682
     40683     40684     40683     40685     40684     40685     40686     40687
     40686     40688     40687     40688     40689     40690     40689     40691
     40690     40691     40692     40693     40692     40694     40693     40694
     40695     40696     40695     40697     40696     40697     40698     40699
     40698     40700     40699     40700     40701     40702     40701     40703
     40702     40703     40704     40705     40704     40706     40705     40706
     40707     40708     40707     40709     40708     40709     40710     40711
     40710     40712     40711     40712     40713     40714     40713     40715
     40714     40715     40716     40717     40716     40718     40717     40718
     40719     40720     40719     40721     40720     40721     40722     40723
     40722     40724     40723     40724     40725     40726     40725     40727
     40726     40727     40728     40729     40728     40730     40729     40730
     40731     40732     40731     40733     40732     40733     40734     40735
     40734     40736     40735     40736     40737     40738     40737     40739
     40738     40739     40740     40741     40740     40742     40741     40742
     40743     40744     40743     40745     40744     40745     40746     40747
     40746     40748     40747     40748     40749     40750     40749     40751
     40750     40751     40752     40753     40752     40754     40753     40754
     40755     40756     40755     40757     40756     40757     40758     40759
     40758     40760     40759     40760     40761     40762     40761     40763
     40762     40763     40764     40765     40764     40766     40765     40766
     40767     40768     40767     40769     40768     40769     40770     40771
     40770     40772     40771     40772     40773     40774     40773     40775
     40774     40775     40776     40777     40776     40778     40777     40778
     40779     40780     40779     40781     40780     40781     40782     40783
     40782     40784     40783     40784     40785     40786     40785     40787
     40786     40787     40788     40789     40788     40790     40789     40790
     40791     40792     40791     40793     40792     40793     40794     40795
     40794     40796     40795     40796     40797     40798     40797     40799
     40798     40799     40800     40801     40800     40802     40801     40802
     40803     40804     40803     40805     40804     40805     40806     40807
     40806     40808     40807     40808     40809     40810     40809     40811
     40810     40811     40812     40813     40812     40814     40813     40814
     40815     40816     40815     40817     40816     40817     40818     40819
     40818     40820     40819     40820     40821     40822     40821     40823
     40822     40823     40824     40825     40824     40826     40825     40826
     40827     40828     40827     40829     40828     40829     40830     40831
     40830     40832     40831     40832     40833     40834     40833     40835
     40834     40835     40836     40837     40836     40838     40837     40838
     40839     40840     40839     40841     40840     40841     40842     40843
     40842     40844     40843     40844     40845     40846     40845     40847
     40846     40847     40848     40849     40848     40850     40849     40850
     40851     40852     40851     40853     40852     40853     40854     40855
     40854     40856     40855     40856     40857     40858     40857     40859
     40858     40859     40860     40861     40860     40862     40861     40862
     40863     40864     40863     40865     40864     40865     40866     40867
     40866     40868     40867     40868     40869     40870     40869     40871
     40870     40871     40872     40873     40872     40874     40873     40874
     40875     40876     40875     40877     40876     40877     40878     40879
     40878     40880     40879     40880     40881     40882     40881     40883
     40882     40883     40884     40885     40884     40886     40885     40886
     40887     40888     40887     40889     40888     40889     40890     40891
     40890     40892     40891     40892     40893     40894     40893     40895
     40894     40895     40896     40897     40896     40898     40897     40898
     40899     40900     40899     40901     40900     40901     40902     40903
     40902     40904     40903     40904     40905     40906     40905     40907
     40906     40907     40908     40909     40908     40910     40909     40910
     40911     40912     40911     40913     40912     40913     40914     40915
     40914     40916     40915     40916     40917     40918     40917     40919
     40918     40919     40920     40921     40920     40922     40921     40922
     40923     40924     40923     40925     40924     40925     40926     40927
     40926     40928     40927     40928     40929     40930     40929     40931
     40930     40931     40932     40933     40932     40934     40933     40934
     40935     40936     40935     40937     40936     40937     40938     40939
     40938     40940     40939     40940     40941     40942     40941     40943
     40942     40943     40944     40945     40944     40946     40945     40946
     40947     40948     40947     40949     40948     40949     40950     40951
     40950     40952     40951     40952     40953     40954     40953     40955
     40954     40955     40956     40957     40956     40958     40957     40958
     40959     40960     40959     40961     40960     40961     40962     40963
     40962     40964     40963     40964     40965     40966     40965     40967
     40966     40967     40968     40969     40968     40970     40969     40970
     40971     40972     40971     40973     40972     40973     40974     40975
     40974     40976     40975     40976     40977     40978     40977     40979
     40978     40979     40980     40981     40980     40982     40981     40982
     40983     40984     40983     40985     40984     40985     40986     40987
     40986     40988     40987     40988     40989     40990     40989     40991
     40990     40991     40992     40993     40992     40994     40993     40994
     40995     40996     40995     40997     40996     40997     40998     40999
     40998     41000     40999     41000     41001     41002     41001     41003
     41002     41003     41004     41005     41004     41006     41005     41006
     41007     41008     41007     41009     41008     41009     41010     41011
     41010     41012     41011     41012     41013     41014     41013     41015
     41014     41015     41016     41017     41016     41018     41017     41018
     41019     41020     41019     41021     41020     41021     41022     41023
     41022     41024     41023     41024     41025     41026     41025     41027
     41026     41027     41028     41029     41028     41030     41029     41030
     41031     41032     41031     41033     41032     41033     41034     41035
     41034     41036     41035     41036     41037     41038     41037     41039
     41038     41039     41040     41041     41040     41042     41041     41042
     41043     41044     41043     41045     41044     41045     41046     41047
     41046     41048     41047     41048     41049     41050     41049     41051
     41050     41051     41052     41053     41052     41054     41053     41054
     41055     41056     41055     41057     41056     41057     41058     41059
     41058     41060     41059     41060     41061     41062     41061     41063
     41062     41063     41064     41065     41064     41066     41065     41066
     41067     41068     41067     41069     41068     41069     41070     41071
     41070     41072     41071     41072     41073     41074     41073     41075
     41074     41075     41076     41077     41076     41078     41077     41078
     41079     41080     41079     41081     41080     41081     41082     41083
     41082     41084     41083     41084     41085     41086     41085     41087
     41086     41087     41088     41089     41088     41090     41089     41090
     41091     41092     41091     41093     41092     41093     41094     41095
     41094     41096     41095     41096     41097     41098     41097     41099
     41098     41099     41100     41101     41100     41102     41101     41102
     41103     41104     41103     41105     41104     41105     41106     41107
     41106     41108     41107     41108     41109     41110     41109     41111
     41110     41111     41112     41113     41112     41114     41113     41114
     41115     41116     41115     41117     41116     41117     41118     41119
     41118     41120     41119     41120     41121     41122     41121     41123
     41122     41123     41124     41125     41124     41126     41125     41126
     41127     41128     41127     41129     41128     41129     41130     41131
     41130     41132     41131     41132     41133     41134     41133     41135
     41134     41135     41136     41137     41136     41138     41137     41138
     41139     41140     41139     41141     41140     41141     41142     41143
     41142     41144     41143     41144     41145     41146     41145     41147
     41146     41147     41148     41149     41148     41150     41149     41150
     41151     41152     41151     41153     41152     41153     41154     41155
     41154     41156     41155     41156     41157     41158     41157     41159
     41158     41159     41160     41161     41160     41162     41161     41162
     41163     41164     41163     41165     41164     41165     41166     41167
     41166     41168     41167     41168     41169     41170     41169     41171
     41170     41171     41172     41173     41172     41174     41173     41174
     41175     41176     41175     41177     41176     41177     41178     41179
     41178     41180     41179     41180     41181     41182     41181     41183
     41182     41183     41184     41185     41184     41186     41185     41186
     41187     41188     41187     41189     41188     41189     41190     41191
     41190     41192     41191     41192     41193     41194     41193     41195
     41194     41195     41196     41197     41196     41198     41197     41198
     41199     41200     41199     41201     41200     41201     41202     41203
     41202     41204     41203     41204     41205     41206     41205     41207
     41206     41207     41208     41209     41208     41210     41209     41210
     41211     41212     41211     41213     41212     41213     41214     41215
     41214     41216     41215     41216     41217     41218     41217     41219
     41218     41219     41220     41221     41220     41222     41221     41222
     41223     41224     41223     41225     41224     41225     41226     41227
     41226     41228     41227     41228     41229     41230     41229     41231
     41230     41231     41232     41233     41232     41234     41233     41234
     41235     41236     41235     41237     41236     41237     41238     41239
     41238     41240     41239     41240     41241     41242     41241     41243
     41242     41243     41244     41245     41244     41246     41245     41246
     41247     41248     41247     41249     41248     41249     41250     41251
     41250     41252     41251     41252     41253     41254     41253     41255
     41254     41255     41256     41257     41256     41258     41257     41258
     41259     41260     41259     41261     41260     41261     41262     41263
     41262     41264     41263     41264     41265     41266     41265     41267
     41266     41267     41268     41269     41268     41270     41269     41270
     41271     41272     41271     41273     41272     41273     41274     41275
     41274     41276     41275     41276     41277     41278     41277     41279
     41278     41279     41280     41281     41280     41282     41281     41282
     41283     41284     41283     41285     41284     41285     41286     41287
     41286     41288     41287     41288     41289     41290     41289     41291
     41290     41291     41292     41293     41292     41294     41293     41294
     41295     41296     41295     41297     41296     41297     41298     41299
     41298     41300     41299     41300     41301     41302     41301     41303
     41302     41303     41304     41305     41304     41306     41305     41306
     41307     41308     41307     41309     41308     41309     41310     41311
     41310     41312     41311     41312     41313     41314     41313     41315
     41314     41315     41316     41317     41316     41318     41317     41318
     41319     41320     41319     41321     41320     41321     41322     41323
     41322     41324     41323     41324     41325     41326     41325     41327
     41326     41327     41328     41329     41328     41330     41329     41330
     41331     41332     41331     41333     41332     41333     41334     41335
     41334     41336     41335     41336     41337     41338     41337     41339
     41338     41339     41340     41341     41340     41342     41341     41342
     41343     41344     41343     41345     41344     41345     41346     41347
     41346     41348     41347     41348     41349     41350     41349     41351
     41350     41351     41352     41353     41352     41354     41353     41354
     41355     41356     41355     41357     41356     41357     41358     41359
     41358     41360     41359     41360     41361     41362     41361     41363
     41362     41363     41364     41365     41364     41366     41365     41366
     41367     41368     41367     41369     41368     41369     41370     41371
     41370     41372     41371     41372     41373     41374     41373     41375
     41374     41375     41376     41377     41376     41378     41377     41378
     41379     41380     41379     41381     41380     41381     41382     41383
     41382     41384     41383     41384     41385     41386     41385     41387
     41386     41387     41388     41389     41388     41390     41389     41390
     41391     41392     41391     41393     41392     41393     41394     41395
     41394     41396     41395     41396     41397     41398     41397     41399
     41398     41399     41400     41401     41400     41402     41401     41402
     41403     41404     41403     41405     41404     41405     41406     41407
     41406     41408     41407     41408     41409     41410     41409     41411
     41410     41411     41412     41413     41412     41414     41413     41414
     41415     41416     41415     41417     41416     41417     41418     41419
     41418     41420     41419     41420     41421     41422     41421     41423
     41422     41423     41424     41425     41424     41426     41425     41426
     41427     41428     41427     41429     41428     41429     41430     41431
     41430     41432     41431     41432     41433     41434     41433     41435
     41434     41435     41436     41437     41436     41438     41437     41438
     41439     41440     41439     41441     41440     41441     41442     41443
     41442     41444     41443     41444     41445     41446     41445     41447
     41446     41447     41448     41449     41448     41450     41449     41450
     41451     41452     41451     41453     41452     41453     41454     41455
     41454     41456     41455     41456     41457     41458     41457     41459
     41458     41459     41460     41461     41460     41462     41461     41462
     41463     41464     41463     41465     41464     41465     41466     41467
     41466     41468     41467     41468     41469     41470     41469     41471
     41470     41471     41472     41473     41472     41474     41473     41474
     41475     41476     41475     41477     41476     41477     41478     41479
     41478     41480     41479     41480     41481     41482     41481     41483
     41482     41483     41484     41485     41484     41486     41485     41486
     41487     41488     41487     41489     41488     41489     41490     41491
     41490     41492     41491     41492     41493     41494     41493     41495
     41494     41495     41496     41497     41496     41498     41497     41498
     41499     41500     41499     41501     41500     41501     41502     41503
     41502     41504     41503     41504     41505     41506     41505     41507
     41506     41507     41508     41509     41508     41510     41509     41510
     41511     41512     41511     41513     41512     41513     41514     41515
     41514     41516     41515     41516     41517     41518     41517     41519
     41518     41519     41520     41521     41520     41522     41521     41522
     41523     41524     41523     41525     41524     41525     41526     41527
     41526     41528     41527     41528     41529     41530     41529     41531
     41530     41531     41532     41533     41532     41534     41533     41534
     41535     41536     41535     41537     41536     41537     41538     41539
     41538     41540     41539     41540     41541     41542     41541     41543
     41542     41543     41544     41545     41544     41546     41545     41546
     41547     41548     41547     41549     41548     41549     41550     41551
     41550     41552     41551     41552     41553     41554     41553     41555
     41554     41555     41556     41557     41556     41558     41557     41558
     41559     41560     41559     41561     41560     41561     41562     41563
     41562     41564     41563     41564     41565     41566     41565     41567
     41566     41567     41568     41569     41568     41570     41569     41570
     41571     41572     41571     41573     41572     41573     41574     41575
     41574     41576     41575     41576     41577     41578     41577     41579
     41578     41579     41580     41581     41580     41582     41581     41582
     41583     41584     41583     41585     41584     41585     41586     41587
     41586     41588     41587     41588     41589     41590     41589     41591
     41590     41591     41592     41593     41592     41594     41593     41594
     41595     41596     41595     41597     41596     41597     41598     41599
     41598     41600     41599     41600     41601     41602     41601     41603
     41602     41603     41604     41605     41604     41606     41605     41606
     41607     41608     41607     41609     41608     41609     41610     41611
     41610     41612     41611     41612     41613     41614     41613     41615
     41614     41615     41616     41617     41616     41618     41617     41618
     41619     41620     41619     41621     41620     41621     41622     41623
     41622     41624     41623     41624     41625     41626     41625     41627
     41626     41627     41628     41629     41628     41630     41629     41630
     41631     41632     41631     41633     41632     41633     41634     41635
     41634     41636     41635     41636     41637     41638     41637     41639
     41638     41639     41640     41641     41640     41642     41641     41642
     41643     41644     41643     41645     41644     41645     41646     41647
     41646     41648     41647     41648     41649     41650     41649     41651
     41650     41651     41652     41653     41652     41654     41653     41654
     41655     41656     41655     41657     41656     41657     41658     41659
     41658     41660     41659     41660     41661     41662     41661     41663
     41662     41663     41664     41665     41664     41666     41665     41666
     41667     41668     41667     41669     41668     41669     41670     41671
     41670     41672     41671     41672     41673     41674     41673     41675
     41674     41675     41676     41677     41676     41678     41677     41678
     41679     41680     41679     41681     41680     41681     41682     41683
     41682     41684     41683     41684     41685     41686     41685     41687
     41686     41687     41688     41689     41688     41690     41689     41690
     41691     41692     41691     41693     41692     41693     41694     41695
     41694     41696     41695     41696     41697     41698     41697     41699
     41698     41699     41700     41701     41700     41702     41701     41702
     41703     41704     41703     41705     41704     41705     41706     41707
     41706     41708     41707     41708     41709     41710     41709     41711
     41710     41711     41712     41713     41712     41714     41713     41714
     41715     41716     41715     41717     41716     41717     41718     41719
     41718     41720     41719     41720     41721     41722     41721     41723
     41722     41723     41724     41725     41724     41726     41725     41726
     41727     41728     41727     41729     41728     41729     41730     41731
     41730     41732     41731     41732     41733     41734     41733     41735
     41734     41735     41736     41737     41736     41738     41737     41738
     41739     41740     41739     41741     41740     41741     41742     41743
     41742     41744     41743     41744     41745     41746     41745     41747
     41746     41747     41748     41749     41748     41750     41749     41750
     41751     41752     41751     41753     41752     41753     41754     41755
     41754     41756     41755     41756     41757     41758     41757     41759
     41758     41759     41760     41761     41760     41762     41761     41762
     41763     41764     41763     41765     41764     41765     41766     41767
     41766     41768     41767     41768     41769     41770     41769     41771
     41770     41771     41772     41773     41772     41774     41773     41774
     41775     41776     41775     41777     41776     41777     41778     41779
     41778     41780     41779     41780     41781     41782     41781     41783
     41782     41783     41784     41785     41784     41786     41785     41786
     41787     41788     41787     41789     41788     41789     41790     41791
     41790     41792     41791     41792     41793     41794     41793     41795
     41794     41795     41796     41797     41796     41798     41797     41798
     41799     41800     41799     41801     41800     41801     41802     41803
     41802     41804     41803     41804     41805     41806     41805     41807
     41806     41807     41808     41809     41808     41810     41809     41810
     41811     41812     41811     41813     41812     41813     41814     41815
     41814     41816     41815     41816     41817     41818     41817     41819
     41818     41819     41820     41821     41820     41822     41821     41822
     41823     41824     41823     41825     41824     41825     41826     41827
     41826     41828     41827     41828     41829     41830     41829     41831
     41830     41831     41832     41833     41832     41834     41833     41834
     41835     41836     41835     41837     41836     41837     41838     41839
     41838     41840     41839     41840     41841     41842     41841     41843
     41842     41843     41844     41845     41844     41846     41845     41846
     41847     41848     41847     41849     41848     41849     41850     41851
     41850     41852     41851     41852     41853     41854     41853     41855
     41854     41855     41856     41857     41856     41858     41857     41858
     41859     41860     41859     41861     41860     41861     41862     41863
     41862     41864     41863     41864     41865     41866     41865     41867
     41866     41867     41868     41869     41868     41870     41869     41870
     41871     41872     41871     41873     41872     41873     41874     41875
     41874     41876     41875     41876     41877     41878     41877     41879
     41878     41879     41880     41881     41880     41882     41881     41882
     41883     41884     41883     41885     41884     41885     41886     41887
     41886     41888     41887     41888     41889     41890     41889     41891
     41890     41891     41892     41893     41892     41894     41893     41894
     41895     41896     41895     41897     41896     41897     41898     41899
     41898     41900     41899     41900     41901     41902     41901     41903
     41902     41903     41904     41905     41904     41906     41905     41906
     41907     41908     41907     41909     41908     41909     41910     41911
     41910     41912     41911     41912     41913     41914     41913     41915
     41914     41915     41916     41917     41916     41918     41917     41918
     41919     41920     41919     41921     41920     41921     41922     41923
     41922     41924     41923     41924     41925     41926     41925     41927
     41926     41927     41928     41929     41928     41930     41929     41930
     41931     41932     41931     41933     41932     41933     41934     41935
     41934     41936     41935     41936     41937     41938     41937     41939
     41938     41939     41940     41941     41940     41942     41941     41942
     41943     41944     41943     41945     41944     41945     41946     41947
     41946     41948     41947     41948     41949     41950     41949     41951
     41950     41951     41952     41953     41952     41954     41953     41954
     41955     41956     41955     41957     41956     41957     41958     41959
     41958     41960     41959     41960     41961     41962     41961     41963
     41962     41963     41964     41965     41964     41966     41965     41966
     41967     41968     41967     41969     41968     41969     41970     41971
     41970     41972     41971     41972     41973     41974     41973     41975
     41974     41975     41976     41977     41976     41978     41977     41978
     41979     41980     41979     41981     41980     41981     41982     41983
     41982     41984     41983     41984     41985     41986     41985     41987
     41986     41987     41988     41989     41988     41990     41989     41990
     41991     41992     41991     41993     41992     41993     41994     41995
     41994     41996     41995     41996     41997     41998     41997     41999
     41998     41999     42000     42001     42000     42002     42001     42002
     42003     42004     42003     42005     42004     42005     42006     42007
     42006     42008     42007     42008     42009     42010     42009     42011
     42010     42011     42012     42013     42012     42014     42013     42014
     42015     42016     42015     42017     42016     42017     42018     42019
     42018     42020     42019     42020     42021     42022     42021     42023
     42022     42023     42024     42025     42024     42026     42025     42026
     42027     42028     42027     42029     42028     42029     42030     42031
     42030     42032     42031     42032     42033     42034     42033     42035
     42034     42035     42036     42037     42036     42038     42037     42038
     42039     42040     42039     42041     42040     42041     42042     42043
     42042     42044     42043     42044     42045     42046     42045     42047
     42046     42047     42048     42049     42048     42050     42049     42050
     42051     42052     42051     42053     42052     42053     42054     42055
     42054     42056     42055     42056     42057     42058     42057     42059
     42058     42059     42060     42061     42060     42062     42061     42062
     42063     42064     42063     42065     42064     42065     42066     42067
     42066     42068     42067     42068     42069     42070     42069     42071
     42070     42071     42072     42073     42072     42074     42073     42074
     42075     42076     42075     42077     42076     42077     42078     42079
     42078     42080     42079     42080     42081     42082     42081     42083
     42082     42083     42084     42085     42084     42086     42085     42086
     42087     42088     42087     42089     42088     42089     42090     42091
     42090     42092     42091     42092     42093     42094     42093     42095
     42094     42095     42096     42097     42096     42098     42097     42098
     42099     42100     42099     42101     42100     42101     42102     42103
     42102     42104     42103     42104     42105     42106     42105     42107
     42106     42107     42108     42109     42108     42110     42109     42110
     42111     42112     42111     42113     42112     42113     42114     42115
     42114     42116     42115     42116     42117     42118     42117     42119
     42118     42119     42120     42121     42120     42122     42121     42122
     42123     42124     42123     42125     42124     42125     42126     42127
     42126     42128     42127     42128     42129     42130     42129     42131
     42130     42131     42132     42133     42132     42134     42133     42134
     42135     42136     42135     42137     42136     42137     42138     42139
     42138     42140     42139     42140     42141     42142     42141     42143
     42142     42143     42144     42145     42144     42146     42145     42146
     42147     42148     42147     42149     42148     42149     42150     42151
     42150     42152     42151     42152     42153     42154     42153     42155
     42154     42155     42156     42157     42156     42158     42157     42158
     42159     42160     42159     42161     42160     42161     42162     42163
     42162     42164     42163     42164     42165     42166     42165     42167
     42166     42167     42168     42169     42168     42170     42169     42170
     42171     42172     42171     42173     42172     42173     42174     42175
     42174     42176     42175     42176     42177     42178     42177     42179
     42178     42179     42180     42181     42180     42182     42181     42182
     42183     42184     42183     42185     42184     42185     42186     42187
     42186     42188     42187     42188     42189     42190     42189     42191
     42190     42191     42192     42193     42192     42194     42193     42194
     42195     42196     42195     42197     42196     42197     42198     42199
     42198     42200     42199     42200     42201     42202     42201     42203
     42202     42203     42204     42205     42204     42206     42205     42206
     42207     42208     42207     42209     42208     42209     42210     42211
     42210     42212     42211     42212     42213     42214     42213     42215
     42214     42215     42216     42217     42216     42218     42217     42218
     42219     42220     42219     42221     42220     42221     42222     42223
     42222     42224     42223     42224     42225     42226     42225     42227
     42226     42227     42228     42229     42228     42230     42229     42230
     42231     42232     42231     42233     42232     42233     42234     42235
     42234     42236     42235     42236     42237     42238     42237     42239
     42238     42239     42240     42241     42240     42242     42241     42242
     42243     42244     42243     42245     42244     42245     42246     42247
     42246     42248     42247     42248     42249     42250     42249     42251
     42250     42251     42252     42253     42252     42254     42253     42254
     42255     42256     42255     42257     42256     42257     42258     42259
     42258     42260     42259     42260     42261     42262     42261     42263
     42262     42263     42264     42265     42264     42266     42265     42266
     42267     42268     42267     42269     42268     42269     42270     42271
     42270     42272     42271     42272     42273     42274     42273     42275
     42274     42275     42276     42277     42276     42278     42277     42278
     42279     42280     42279     42281     42280     42281     42282     42283
     42282     42284     42283     42284     42285     42286     42285     42287
     42286     42287     42288     42289     42288     42290     42289     42290
     42291     42292     42291     42293     42292     42293     42294     42295
     42294     42296     42295     42296     42297     42298     42297     42299
     42298     42299     42300     42301     42300     42302     42301     42302
     42303     42304     42303     42305     42304     42305     42306     42307
     42306     42308     42307     42308     42309     42310     42309     42311
     42310     42311     42312     42313     42312     42314     42313     42314
     42315     42316     42315     42317     42316     42317     42318     42319
     42318     42320     42319     42320     42321     42322     42321     42323
     42322     42323     42324     42325     42324     42326     42325     42326
     42327     42328     42327     42329     42328     42329     42330     42331
     42330     42332     42331     42332     42333     42334     42333     42335
     42334     42335     42336     42337     42336     42338     42337     42338
     42339     42340     42339     42341     42340     42341     42342     42343
     42342     42344     42343     42344     42345     42346     42345     42347
     42346     42347     42348     42349     42348     42350     42349     42350
     42351     42352     42351     42353     42352     42353     42354     42355
     42354     42356     42355     42356     42357     42358     42357     42359
     42358     42359     42360     42361     42360     42362     42361     42362
     42363     42364     42363     42365     42364     42365     42366     42367
     42366     42368     42367     42368     42369     42370     42369     42371
     42370     42371     42372     42373     42372     42374     42373     42374
     42375     42376     42375     42377     42376     42377     42378     42379
     42378     42380     42379     42380     42381     42382     42381     42383
     42382     42383     42384     42385     42384     42386     42385     42386
     42387     42388     42387     42389     42388     42389     42390     42391
     42390     42392     42391     42392     42393     42394     42393     42395
     42394     42395     42396     42397     42396     42398     42397     42398
     42399     42400     42399     42401     42400     42401     42402     42403
     42402     42404     42403     42404     42405     42406     42405     42407
     42406     42407     42408     42409     42408     42410     42409     42410
     42411     42412     42411     42413     42412     42413     42414     42415
     42414     42416     42415     42416     42417     42418     42417     42419
     42418     42419     42420     42421     42420     42422     42421     42422
     42423     42424     42423     42425     42424     42425     42426     42427
     42426     42428     42427     42428     42429     42430     42429     42431
     42430     42431     42432     42433     42432     42434     42433     42434
     42435     42436     42435     42437     42436     42437     42438     42439
     42438     42440     42439     42440     42441     42442     42441     42443
     42442     42443     42444     42445     42444     42446     42445     42446
     42447     42448     42447     42449     42448     42449     42450     42451
     42450     42452     42451     42452     42453     42454     42453     42455
     42454     42455     42456     42457     42456     42458     42457     42458
     42459     42460     42459     42461     42460     42461     42462     42463
     42462     42464     42463     42464     42465     42466     42465     42467
     42466     42467     42468     42469     42468     42470     42469     42470
     42471     42472     42471     42473     42472     42473     42474     42475
     42474     42476     42475     42476     42477     42478     42477     42479
     42478     42479     42480     42481     42480     42482     42481     42482
     42483     42484     42483     42485     42484     42485     42486     42487
     42486     42488     42487     42488     42489     42490     42489     42491
     42490     42491     42492     42493     42492     42494     42493     42494
     42495     42496     42495     42497     42496     42497     42498     42499
     42498     42500     42499     42500     42501     42502     42501     42503
     42502     42503     42504     42505     42504     42506     42505     42506
     42507     42508     42507     42509     42508     42509     42510     42511
     42510     42512     42511     42512     42513     42514     42513     42515
     42514     42515     42516     42517     42516     42518     42517     42518
     42519     42520     42519     42521     42520     42521     42522     42523
     42522     42524     42523     42524     42525     42526     42525     42527
     42526     42527     42528     42529     42528     42530     42529     42530
     42531     42532     42531     42533     42532     42533     42534     42535
     42534     42536     42535     42536     42537     42538     42537     42539
     42538     42539     42540     42541     42540     42542     42541     42542
     42543     42544     42543     42545     42544     42545     42546     42547
     42546     42548     42547     42548     42549     42550     42549     42551
     42550     42551     42552     42553     42552     42554     42553     42554
     42555     42556     42555     42557     42556     42557     42558     42559
     42558     42560     42559     42560     42561     42562     42561     42563
     42562     42563     42564     42565     42564     42566     42565     42566
     42567     42568     42567     42569     42568     42569     42570     42571
     42570     42572     42571     42572     42573     42574     42573     42575
     42574     42575     42576     42577     42576     42578     42577     42578
     42579     42580     42579     42581     42580     42581     42582     42583
     42582     42584     42583     42584     42585     42586     42585     42587
     42586     42587     42588     42589     42588     42590     42589     42590
     42591     42592     42591     42593     42592     42593     42594     42595
     42594     42596     42595     42596     42597     42598     42597     42599
     42598     42599     42600     42601     42600     42602     42601     42602
     42603     42604     42603     42605     42604     42605     42606     42607
     42606     42608     42607     42608     42609     42610     42609     42611
     42610     42611     42612     42613     42612     42614     42613     42614
     42615     42616     42615     42617     42616     42617     42618     42619
     42618     42620     42619     42620     42621     42622     42621     42623
     42622     42623     42624     42625     42624     42626     42625     42626
     42627     42628     42627     42629     42628     42629     42630     42631
     42630     42632     42631     42632     42633     42634     42633     42635
     42634     42635     42636     42637     42636     42638     42637     42638
     42639     42640     42639     42641     42640     42641     42642     42643
     42642     42644     42643     42644     42645     42646     42645     42647
     42646     42647     42648     42649     42648     42650     42649     42650
     42651     42652     42651     42653     42652     42653     42654     42655
     42654     42656     42655     42656     42657     42658     42657     42659
     42658     42659     42660     42661     42660     42662     42661     42662
     42663     42664     42663     42665     42664     42665     42666     42667
     42666     42668     42667     42668     42669     42670     42669     42671
     42670     42671     42672     42673     42672     42674     42673     42674
     42675     42676     42675     42677     42676     42677     42678     42679
     42678     42680     42679     42680     42681     42682     42681     42683
     42682     42683     42684     42685     42684     42686     42685     42686
     42687     42688     42687     42689     42688     42689     42690     42691
     42690     42692     42691     42692     42693     42694     42693     42695
     42694     42695     42696     42697     42696     42698     42697     42698
     42699     42700     42699     42701     42700     42701     42702     42703
     42702     42704     42703     42704     42705     42706     42705     42707
     42706     42707     42708     42709     42708     42710     42709     42710
     42711     42712     42711     42713     42712     42713     42714     42715
     42714     42716     42715     42716     42717     42718     42717     42719
     42718     42719     42720     42721     42720     42722     42721     42722
     42723     42724     42723     42725     42724     42725     42726     42727
     42726     42728     42727     42728     42729     42730     42729     42731
     42730     42731     42732     42733     42732     42734     42733     42734
     42735     42736     42735     42737     42736     42737     42738     42739
     42738     42740     42739     42740     42741     42742     42741     42743
     42742     42743     42744     42745     42744     42746     42745     42746
     42747     42748     42747     42749     42748     42749     42750     42751
     42750     42752     42751     42752     42753     42754     42753     42755
     42754     42755     42756     42757     42756     42758     42757     42758
     42759     42760     42759     42761     42760     42761     42762     42763
     42762     42764     42763     42764     42765     42766     42765     42767
     42766     42767     42768     42769     42768     42770     42769     42770
     42771     42772     42771     42773     42772     42773     42774     42775
     42774     42776     42775     42776     42777     42778     42777     42779
     42778     42779     42780     42781     42780     42782     42781     42782
     42783     42784     42783     42785     42784     42785     42786     42787
     42786     42788     42787     42788     42789     42790     42789     42791
     42790     42791     42792     42793     42792     42794     42793     42794

     49728 !NTHETA: angles
         2         1         3         2         1         4         2         1         5
         3         1         4         3         1         5         4         1         5
         1         5         6         1         5         7         1         5        10
         6         5         7         6         5        10         7         5        10
         5         7         8         5         7         9         8         7         9
         5        10        11         5        10        12         5        10        16
        11        10        12        11        10        16        12        10        16
        14        13        15        14        13        16        14        13        17
        15        13        16        15        13        17        16        13        17
        10        16        13        13        17        18        17        18        19
        17        18        20        17        18        21        19        18        20
        19        18        21        20        18        21        18        21        22
        18        21        23        18        21        29        22        21        23
        22        21        29        23        21        29        21        23        24
        23        24        25        23        24        26        25        24        26
        24        26        27        24        26        28        24        26        38
        27        26        28        27        26        38        28        26        38
        21        29        30        21        29        31        21        29        32
        30        29        31        30        29        32        31        29        32
        29        32        33        32        33        34        32        33        35
        34        33        35        33        35        36        33        35        37
        33        35        85        36        35        37        36        35        85
        37        35        85        26        38        39        26        38        40
        26        38        41        39        38        40        39        38        41
        40        38        41        38        41        42        38        41        43
        38        41        44        42        41        43        42        41        44
        43        41        44        41        44        45        41        44        46
        45        44        46        44        46        47        44        46        48
        47        46        48        46        48        49        46        48        50
        46        48        51        49        48        50        49        48        51
        50        48        51        48        51        52        48        51        53
        52        51        53        51        53        54        51        53        55
        54        53        55        53        55        56        53        55        57
        53        55        58        56        55        57        56        55        58
        57        55        58        55        58        59        55        58        60
        59        58        60        58        60        61        58        60        62
        61        60        62        60        62        63        60        62        64
        60        62        65        63        62        64        63        62        65
        64        62        65        62        65        66        62        65        67
        66        65        67        65        67        68        65        67        69
        68        67        69        67        69        70        67        69        71
        67        69        72        70        69        71        70        69        72
        71        69        72        69        72        73        69        72        74
        69        72        75        73        72        74        73        72        75
        74        72        75        72        75        76        72        75        77
        72        75        78        76        75        77        76        75        78
        77        75        78        75        78        79        75        78        80
        75        78        81        79        78        80        79        78        81
        80        78        81        78        81        82        78        81        83
        78        81        84        82        81        83        82        81        84
        83        81        84        35        85        86        35        85        87
        35        85        88        86        85        87        86        85        88
        87        85        88        85        88        89        85        88        90
        85        88        91        89        88        90        89        88        91
        90        88        91        88        91        92        88        91        93
        88        91        94        92        91        93        92        91        94
        93        91        94        91        94        95        91        94        96
        91        94        97        95        94        96        95        94        97
        96        94        97        94        97        98        94        97        99
        94        97       100        98        97        99        98        97       100
        99        97       100        97       100       101        97       100       102
        97       100       103       101       100       102       101       100       103
       102       100       103       100       103       104       100       103       105
       100       103       106       104       103       105       104       103       106
       105       103       106       103       106       107       103       106       108
       103       106       109       107       106       108       107       106       109
       108       106       109       106       109       110       106       109       111
       106       109       112       110       109       111       110       109       112
       111       109       112       109       112       113       109       112       114
       109       112       115       113       112       114       113       112       115
       114       112       115       112       115       116       112       115       117
       112       115       118       116       115       117       116       115       118
       117       115       118       115       118       119       115       118       120
       115       118       121       119       118       120       119       118       121
       120       118       121       118       121       122       118       121       123
       118       121       124       122       121       123       122       121       124
       123       121       124       121       124       125       121       124       126
       121       124       127       125       124       126       125       124       127
       126       124       127       124       127       128       124       127       129
       124       127       130       128       127       129       128       127       130
       129       127       130       127       130       131       127       130       132
       127       130       133       131       130       132       131       130       133
       132       130       133      2662      2661      2663      2662      2661      2665
      2662      2661      2707      2663      2661      2665      2663      2661      2707
      2665      2661      2707      2661      2663      2664      2661      2665      2666
      2661      2665      2667      2661      2665      2668      2666      2665      2667
      2666      2665      2668      2667      2665      2668      2665      2668      2669
      2665      2668      2699      2669      2668      2699      2668      2669      2670
      2668      2669      2671      2670      2669      2671      2669      2671      2672
      2669      2671      2673      2669      2671      2674      2672      2671      2673
      2672      2671      2674      2673      2671      2674      2671      2674      2675
      2671      2674      2676      2671      2674      2697      2675      2674      2676
      2675      2674      2697      2676      2674      2697      2674      2676      2677
      2674      2676      2678      2674      2676      2686      2677      2676      2678
      2677      2676      2686      2678      2676      2686      2676      2678      2679
      2676      2678      2680      2676      2678      2681      2679      2678      2680
      2679      2678      2681      2680      2678      2681      2678      2681      2682
      2678      2681      2683      2678      2681      2684      2682      2681      2683
      2682      2681      2684      2683      2681      2684      2681      2684      2685
      2681      2684      2686      2681      2684      2710      2685      2684      2686
      2685      2684      2710      2686      2684      2710      2676      2686      2684
      2676      2686      2687      2676      2686      2691      2684      2686      2687
      2684      2686      2691      2687      2686      2691      2686      2687      2688
      2686      2687      2689      2686      2687      2690      2688      2687      2689
      2688      2687      2690      2689      2687      2690      2686      2691      2692
      2686      2691      2693      2686      2691      2694      2692      2691      2693
      2692      2691      2694      2693      2691      2694      2691      2694      2695
      2691      2694      2696      2691      2694      2697      2695      2694      2696
      2695      2694      2697      2696      2694      2697      2674      2697      2694
      2674      2697      2698      2674      2697      2699      2694      2697      2698
      2694      2697      2699      2698      2697      2699      2668      2699      2697
      2668      2699      2700      2668      2699      2704      2697      2699      2700
      2697      2699      2704      2700      2699      2704      2699      2700      2701
      2699      2700      2702      2699      2700      2703      2701      2700      2702
      2701      2700      2703      2702      2700      2703      2699      2704      2705
      2699      2704      2706      2699      2704      2707      2705      2704      2706
      2705      2704      2707      2706      2704      2707      2661      2707      2704
      2661      2707      2708      2661      2707      2709      2704      2707      2708
      2704      2707      2709      2708      2707      2709      2684      2710      2711
      2684      2710      2712      2684      2710      2716      2711      2710      2712
      2711      2710      2716      2712      2710      2716      2710      2712      2713
      2710      2712      2714      2710      2712      2715      2713      2712      2714
      2713      2712      2715      2714      2712      2715      2710      2716      2717
      2710      2716      2718      2710      2716      2719      2717      2716      2718
      2717      2716      2719      2718      2716      2719      2716      2719      2720
      2716      2719      2721      2716      2719      2722      2720      2719      2721
      2720      2719      2722      2721      2719      2722      2719      2722      2723
      2719      2722      2724      2719      2722      2725      2723      2722      2724
      2723      2722      2725      2724      2722      2725      2722      2725      2726
      2722      2725      2727      2722      2725      2731      2726      2725      2727
      2726      2725      2731      2727      2725      2731      2725      2727      2728
      2725      2727      2729      2725      2727      2730      2728      2727      2729
      2728      2727      2730      2729      2727      2730      2725      2731      2732
      2725      2731      2733      2725      2731      2734      2732      2731      2733
      2732      2731      2734      2733      2731      2734      6806      6805      6807
      6806      6805      6808      6806      6805      6809      6807      6805      6808
      6807      6805      6809      6808      6805      6809      6805      6809      6810
      6805      6809      6811      6805      6809      6812      6810      6809      6811
      6810      6809      6812      6811      6809      6812      6809      6812      6813
      6809      6812      6814      6809      6812      6818      6813      6812      6814
      6813      6812      6818      6814      6812      6818      6816      6815      6817
      6816      6815      6818      6816      6815      6819      6817      6815      6818
      6817      6815      6819      6818      6815      6819      6812      6818      6815
      6815      6819      6820      6819      6820      6821      6819      6820      6822
      6819      6820      6823      6821      6820      6822      6821      6820      6823
      6822      6820      6823      6820      6823      6824      6820      6823      6825
      6820      6823      6831      6824      6823      6825      6824      6823      6831
      6825      6823      6831      6823      6825      6826      6825      6826      6827
      6825      6826      6828      6827      6826      6828      6826      6828      6829
      6826      6828      6830      6826      6828      6840      6829      6828      6830
      6829      6828      6840      6830      6828      6840      6823      6831      6832
      6823      6831      6833      6823      6831      6834      6832      6831      6833
      6832      6831      6834      6833      6831      6834      6831      6834      6835
      6834      6835      6836      6834      6835      6837      6836      6835      6837
      6835      6837      6838      6835      6837      6839      6835      6837      6887
      6838      6837      6839      6838      6837      6887      6839      6837      6887
      6828      6840      6841      6828      6840      6842      6828      6840      6843
      6841      6840      6842      6841      6840      6843      6842      6840      6843
      6840      6843      6844      6840      6843      6845      6840      6843      6846
      6844      6843      6845      6844      6843      6846      6845      6843      6846
      6843      6846      6847      6843      6846      6848      6843      6846      6849
      6847      6846      6848      6847      6846      6849      6848      6846      6849
      6846      6849      6850      6846      6849      6851      6846      6849      6852
      6850      6849      6851      6850      6849      6852      6851      6849      6852
      6849      6852      6853      6849      6852      6854      6849      6852      6855
      6853      6852      6854      6853      6852      6855      6854      6852      6855
      6852      6855      6856      6852      6855      6857      6852      6855      6858
      6856      6855      6857      6856      6855      6858      6857      6855      6858
      6855      6858      6859      6855      6858      6860      6859      6858      6860
      6858      6860      6861      6858      6860      6862      6861      6860      6862
      6860      6862      6863      6860      6862      6864      6860      6862      6865
      6863      6862      6864      6863      6862      6865      6864      6862      6865
      6862      6865      6866      6862      6865      6867      6862      6865      6868
      6866      6865      6867      6866      6865      6868      6867      6865      6868
      6865      6868      6869      6865      6868      6870      6865      6868      6871
      6869      6868      6870      6869      6868      6871      6870      6868      6871
      6868      6871      6872      6868      6871      6873      6868      6871      6874
      6872      6871      6873      6872      6871      6874      6873      6871      6874
      6871      6874      6875      6871      6874      6876      6871      6874      6877
      6875      6874      6876      6875      6874      6877      6876      6874      6877
      6874      6877      6878      6874      6877      6879      6874      6877      6880
      6878      6877      6879      6878      6877      6880      6879      6877      6880
      6877      6880      6881      6877      6880      6882      6877      6880      6883
      6881      6880      6882      6881      6880      6883      6882      6880      6883
      6880      6883      6884      6880      6883      6885      6880      6883      6886
      6884      6883      6885      6884      6883      6886      6885      6883      6886
      6837      6887      6888      6837      6887      6889      6837      6887      6890
      6888      6887      6889      6888      6887      6890      6889      6887      6890
      6887      6890      6891      6887      6890      6892      6887      6890      6893
      6891      6890      6892      6891      6890      6893      6892      6890      6893
      6890      6893      6894      6890      6893      6895      6890      6893      6896
      6894      6893      6895      6894      6893      6896      6895      6893      6896
      6893      6896      6897      6893      6896      6898      6893      6896      6899
      6897      6896      6898      6897      6896      6899      6898      6896      6899
      6896      6899      6900      6896      6899      6901      6896      6899      6902
      6900      6899      6901      6900      6899      6902      6901      6899      6902
      6899      6902      6903      6899      6902      6904      6899      6902      6905
      6903      6902      6904      6903      6902      6905      6904      6902      6905
      6902      6905      6906      6902      6905      6907      6902      6905      6908
      6906      6905      6907      6906      6905      6908      6907      6905      6908
      6905      6908      6909      6905      6908      6910      6905      6908      6911
      6909      6908      6910      6909      6908      6911      6910      6908      6911
      6908      6911      6912      6908      6911      6913      6908      6911      6914
      6912      6911      6913      6912      6911      6914      6913      6911      6914
      6911      6914      6915      6911      6914      6916      6911      6914      6917
      6915      6914      6916      6915      6914      6917      6916      6914      6917
      6914      6917      6918      6914      6917      6919      6914      6917      6920
      6918      6917      6919      6918      6917      6920      6919      6917      6920
      6917      6920      6921      6917      6920      6922      6917      6920      6923
      6921      6920      6922      6921      6920      6923      6922      6920      6923
      6920      6923      6924      6920      6923      6925      6920      6923      6926
      6924      6923      6925      6924      6923      6926      6925      6923      6926
      6923      6926      6927      6923      6926      6928      6923      6926      6929
      6927      6926      6928      6927      6926      6929      6928      6926      6929
      6926      6929      6930      6926      6929      6931      6926      6929      6932
      6930      6929      6931      6930      6929      6932      6931      6929      6932
      6929      6932      6933      6929      6932      6934      6929      6932      6935
      6933      6932      6934      6933      6932      6935      6934      6932      6935
      2736      2735      2737      2736      2735      2739      2736      2735      2781
      2737      2735      2739      2737      2735      2781      2739      2735      2781
      2735      2737      2738      2735      2739      2740      2735      2739      2741
      2735      2739      2742      2740      2739      2741      2740      2739      2742
      2741      2739      2742      2739      2742      2743      2739      2742      2773
      2743      2742      2773      2742      2743      2744      2742      2743      2745
      2744      2743      2745      2743      2745      2746      2743      2745      2747
      2743      2745      2748      2746      2745      2747      2746      2745      2748
      2747      2745      2748      2745      2748      2749      2745      2748      2750
      2745      2748      2771      2749      2748      2750      2749      2748      2771
      2750      2748      2771      2748      2750      2751      2748      2750      2752
      2748      2750      2760      2751      2750      2752      2751      2750      2760
      2752      2750      2760      2750      2752      2753      2750      2752      2754
      2750      2752      2755      2753      2752      2754      2753      2752      2755
      2754      2752      2755      2752      2755      2756      2752      2755      2757
      2752      2755      2758      2756      2755      2757      2756      2755      2758
      2757      2755      2758      2755      2758      2759      2755      2758      2760
      2755      2758      2784      2759      2758      2760      2759      2758      2784
      2760      2758      2784      2750      2760      2758      2750      2760      2761
      2750      2760      2765      2758      2760      2761      2758      2760      2765
      2761      2760      2765      2760      2761      2762      2760      2761      2763
      2760      2761      2764      2762      2761      2763      2762      2761      2764
      2763      2761      2764      2760      2765      2766      2760      2765      2767
      2760      2765      2768      2766      2765      2767      2766      2765      2768
      2767      2765      2768      2765      2768      2769      2765      2768      2770
      2765      2768      2771      2769      2768      2770      2769      2768      2771
      2770      2768      2771      2748      2771      2768      2748      2771      2772
      2748      2771      2773      2768      2771      2772      2768      2771      2773
      2772      2771      2773      2742      2773      2771      2742      2773      2774
      2742      2773      2778      2771      2773      2774      2771      2773      2778
      2774      2773      2778      2773      2774      2775      2773      2774      2776
      2773      2774      2777      2775      2774      2776      2775      2774      2777
      2776      2774      2777      2773      2778      2779      2773      2778      2780
      2773      2778      2781      2779      2778      2780      2779      2778      2781
      2780      2778      2781      2735      2781      2778      2735      2781      2782
      2735      2781      2783      2778      2781      2782      2778      2781      2783
      2782      2781      2783      2758      2784      2785      2758      2784      2786
      2758      2784      2790      2785      2784      2786      2785      2784      2790
      2786      2784      2790      2784      2786      2787      2784      2786      2788
      2784      2786      2789      2787      2786      2788      2787      2786      2789
      2788      2786      2789      2784      2790      2791      2784      2790      2792
      2784      2790      2793      2791      2790      2792      2791      2790      2793
      2792      2790      2793      2790      2793      2794      2790      2793      2795
      2790      2793      2796      2794      2793      2795      2794      2793      2796
      2795      2793      2796      2793      2796      2797      2793      2796      2798
      2793      2796      2799      2797      2796      2798      2797      2796      2799
      2798      2796      2799      2796      2799      2800      2796      2799      2801
      2796      2799      2805      2800      2799      2801      2800      2799      2805
      2801      2799      2805      2799      2801      2802      2799      2801      2803
      2799      2801      2804      2802      2801      2803      2802      2801      2804
      2803      2801      2804      2799      2805      2806      2799      2805      2807
      2799      2805      2808      2806      2805      2807      2806      2805      2808
      2807      2805      2808      8378      8377      8381      8378      8377      8385
      8378      8377      8389      8381      8377      8385      8381      8377      8389
      8385      8377      8389      8377      8378      8379      8377      8378      8380
      8377      8378      8393      8379      8378      8380      8379      8378      8393
      8380      8378      8393      8377      8381      8382      8377      8381      8383
      8377      8381      8384      8382      8381      8383      8382      8381      8384
      8383      8381      8384      8377      8385      8386      8377      8385      8387
      8377      8385      8388      8386      8385      8387      8386      8385      8388
      8387      8385      8388      8377      8389      8390      8377      8389      8391
      8377      8389      8392      8390      8389      8391      8390      8389      8392
      8391      8389      8392      8378      8393      8394      8378      8393      8395
      8378      8393      8399      8394      8393      8395      8394      8393      8399
      8395      8393      8399      8397      8396      8398      8397      8396      8399
      8397      8396      8400      8398      8396      8399      8398      8396      8400
      8399      8396      8400      8393      8399      8396      8396      8400      8401
      8400      8401      8402      8400      8401      8403      8400      8401      8404
      8402      8401      8403      8402      8401      8404      8403      8401      8404
      8401      8404      8405      8401      8404      8406      8401      8404      8412
      8405      8404      8406      8405      8404      8412      8406      8404      8412
      8404      8406      8407      8406      8407      8408      8406      8407      8409
      8408      8407      8409      8407      8409      8410      8407      8409      8411
      8407      8409      8421      8410      8409      8411      8410      8409      8421
      8411      8409      8421      8404      8412      8413      8404      8412      8414
      8404      8412      8415      8413      8412      8414      8413      8412      8415
      8414      8412      8415      8412      8415      8416      8415      8416      8417
      8415      8416      8418      8417      8416      8418      8416      8418      8419
      8416      8418      8420      8416      8418      8468      8419      8418      8420
      8419      8418      8468      8420      8418      8468      8409      8421      8422
      8409      8421      8423      8409      8421      8424      8422      8421      8423
      8422      8421      8424      8423      8421      8424      8421      8424      8425
      8421      8424      8426      8421      8424      8427      8425      8424      8426
      8425      8424      8427      8426      8424      8427      8424      8427      8428
      8424      8427      8429      8428      8427      8429      8427      8429      8430
      8427      8429      8431      8430      8429      8431      8429      8431      8432
      8429      8431      8433      8429      8431      8434      8432      8431      8433
      8432      8431      8434      8433      8431      8434      8431      8434      8435
      8431      8434      8436      8435      8434      8436      8434      8436      8437
      8434      8436      8438      8437      8436      8438      8436      8438      8439
      8436      8438      8440      8436      8438      8441      8439      8438      8440
      8439      8438      8441      8440      8438      8441      8438      8441      8442
      8438      8441      8443      8442      8441      8443      8441      8443      8444
      8441      8443      8445      8444      8443      8445      8443      8445      8446
      8443      8445      8447      8443      8445      8448      8446      8445      8447
      8446      8445      8448      8447      8445      8448      8445      8448      8449
      8445      8448      8450      8449      8448      8450      8448      8450      8451
      8448      8450      8452      8451      8450      8452      8450      8452      8453
      8450      8452      8454      8450      8452      8455      8453      8452      8454
      8453      8452      8455      8454      8452      8455      8452      8455      8456
      8452      8455      8457      8452      8455      8458      8456      8455      8457
      8456      8455      8458      8457      8455      8458      8455      8458      8459
      8455      8458      8460      8455      8458      8461      8459      8458      8460
      8459      8458      8461      8460      8458      8461      8458      8461      8462
      8458      8461      8463      8458      8461      8464      8462      8461      8463
      8462      8461      8464      8463      8461      8464      8461      8464      8465
      8461      8464      8466      8461      8464      8467      8465      8464      8466
      8465      8464      8467      8466      8464      8467      8418      8468      8469
      8418      8468      8470      8418      8468      8471      8469      8468      8470
      8469      8468      8471      8470      8468      8471      8468      8471      8472
      8468      8471      8473      8468      8471      8474      8472      8471      8473
      8472      8471      8474      8473      8471      8474      8471      8474      8475
      8471      8474      8476      8471      8474      8477      8475      8474      8476
      8475      8474      8477      8476      8474      8477      8474      8477      8478
      8474      8477      8479      8474      8477      8480      8478      8477      8479
      8478      8477      8480      8479      8477      8480      8477      8480      8481
      8477      8480      8482      8477      8480      8483      8481      8480      8482
      8481      8480      8483      8482      8480      8483      8480      8483      8484
      8480      8483      8485      8480      8483      8486      8484      8483      8485
      8484      8483      8486      8485      8483      8486      8483      8486      8487
      8483      8486      8488      8483      8486      8489      8487      8486      8488
      8487      8486      8489      8488      8486      8489      8486      8489      8490
      8486      8489      8491      8486      8489      8492      8490      8489      8491
      8490      8489      8492      8491      8489      8492      8489      8492      8493
      8489      8492      8494      8489      8492      8495      8493      8492      8494
      8493      8492      8495      8494      8492      8495      8492      8495      8496
      8492      8495      8497      8492      8495      8498      8496      8495      8497
      8496      8495      8498      8497      8495      8498      8495      8498      8499
      8495      8498      8500      8495      8498      8501      8499      8498      8500
      8499      8498      8501      8500      8498      8501      8498      8501      8502
      8498      8501      8503      8498      8501      8504      8502      8501      8503
      8502      8501      8504      8503      8501      8504      8501      8504      8505
      8501      8504      8506      8501      8504      8507      8505      8504      8506
      8505      8504      8507      8506      8504      8507      8504      8507      8508
      8504      8507      8509      8504      8507      8510      8508      8507      8509
      8508      8507      8510      8509      8507      8510      8507      8510      8511
      8507      8510      8512      8507      8510      8513      8511      8510      8512
      8511      8510      8513      8512      8510      8513      8510      8513      8514
      8510      8513      8515      8510      8513      8516      8514      8513      8515
      8514      8513      8516      8515      8513      8516     10058     10057     10062
     10058     10057     10066     10058     10057     10070     10062     10057     10066
     10062     10057     10070     10066     10057     10070     10057     10058     10059
     10057     10058     10060     10057     10058     10061     10059     10058     10060
     10059     10058     10061     10060     10058     10061     10057     10062     10063
     10057     10062     10064     10057     10062     10065     10063     10062     10064
     10063     10062     10065     10064     10062     10065     10057     10066     10067
     10057     10066     10068     10057     10066     10069     10067     10066     10068
     10067     10066     10069     10068     10066     10069     10057     10070     10071
     10057     10070     10072     10057     10070     10073     10071     10070     10072
     10071     10070     10073     10072     10070     10073     10070     10073     10074
     10070     10073     10075     10070     10073     10080     10074     10073     10075
     10074     10073     10080     10075     10073     10080     10077     10076     10078
     10077     10076     10079     10077     10076     10080     10078     10076     10079
     10078     10076     10080     10079     10076     10080     10076     10079     10081
     10073     10080     10076     10079     10081     10082     10079     10081     10083
     10079     10081     10086     10082     10081     10083     10082     10081     10086
     10083     10081     10086     10085     10084     10086     10085     10084     10136
     10086     10084     10136     10081     10086     10084     10081     10086     10087
     10081     10086     10088     10084     10086     10087     10084     10086     10088
     10087     10086     10088     10086     10088     10089     10086     10088     10090
     10086     10088     10092     10089     10088     10090     10089     10088     10092
     10090     10088     10092     10088     10090     10091     10088     10092     10093
     10088     10092     10094     10093     10092     10094     10092     10094     10095
     10092     10094     10096     10095     10094     10096     10094     10096     10097
     10094     10096     10098     10094     10096     10099     10097     10096     10098
     10097     10096     10099     10098     10096     10099     10096     10099     10100
     10096     10099     10101     10096     10099     10102     10100     10099     10101
     10100     10099     10102     10101     10099     10102     10099     10102     10103
     10099     10102     10104     10099     10102     10105     10103     10102     10104
     10103     10102     10105     10104     10102     10105     10102     10105     10106
     10102     10105     10107     10102     10105     10108     10106     10105     10107
     10106     10105     10108     10107     10105     10108     10105     10108     10109
     10105     10108     10110     10105     10108     10111     10109     10108     10110
     10109     10108     10111     10110     10108     10111     10108     10111     10112
     10108     10111     10113     10108     10111     10114     10112     10111     10113
     10112     10111     10114     10113     10111     10114     10111     10114     10115
     10111     10114     10116     10111     10114     10117     10115     10114     10116
     10115     10114     10117     10116     10114     10117     10114     10117     10118
     10114     10117     10119     10114     10117     10120     10118     10117     10119
     10118     10117     10120     10119     10117     10120     10117     10120     10121
     10117     10120     10122     10117     10120     10123     10121     10120     10122
     10121     10120     10123     10122     10120     10123     10120     10123     10124
     10120     10123     10125     10120     10123     10126     10124     10123     10125
     10124     10123     10126     10125     10123     10126     10123     10126     10127
     10123     10126     10128     10123     10126     10129     10127     10126     10128
     10127     10126     10129     10128     10126     10129     10126     10129     10130
     10126     10129     10131     10126     10129     10132     10130     10129     10131
     10130     10129     10132     10131     10129     10132     10129     10132     10133
     10129     10132     10134     10129     10132     10135     10133     10132     10134
     10133     10132     10135     10134     10132     10135     10084     10136     10137
     10084     10136     10138     10137     10136     10138     10136     10138     10139
     10136     10138     10140     10136     10138     10141     10139     10138     10140
     10139     10138     10141     10140     10138     10141     10138     10141     10142
     10138     10141     10143     10138     10141     10144     10142     10141     10143
     10142     10141     10144     10143     10141     10144     10141     10144     10145
     10141     10144     10146     10141     10144     10147     10145     10144     10146
     10145     10144     10147     10146     10144     10147     10144     10147     10148
     10144     10147     10149     10144     10147     10150     10148     10147     10149
     10148     10147     10150     10149     10147     10150     10147     10150     10151
     10147     10150     10152     10147     10150     10153     10151     10150     10152
     10151     10150     10153     10152     10150     10153     10150     10153     10154
     10150     10153     10155     10150     10153     10156     10154     10153     10155
     10154     10153     10156     10155     10153     10156     10153     10156     10157
     10153     10156     10158     10153     10156     10159     10157     10156     10158
     10157     10156     10159     10158     10156     10159     10156     10159     10160
     10156     10159     10161     10160     10159     10161     10159     10161     10162
     10159     10161     10163     10162     10161     10163     10161     10163     10164
     10161     10163     10165     10161     10163     10166     10164     10163     10165
     10164     10163     10166     10165     10163     10166     10163     10166     10167
     10163     10166     10168     10163     10166     10169     10167     10166     10168
     10167     10166     10169     10168     10166     10169     10166     10169     10170
     10166     10169     10171     10166     10169     10172     10170     10169     10171
     10170     10169     10172     10171     10169     10172     10169     10172     10173
     10169     10172     10174     10169     10172     10175     10173     10172     10174
     10173     10172     10175     10174     10172     10175     10172     10175     10176
     10172     10175     10177     10172     10175     10178     10176     10175     10177
     10176     10175     10178     10177     10175     10178     10175     10178     10179
     10175     10178     10180     10175     10178     10181     10179     10178     10180
     10179     10178     10181     10180     10178     10181     10178     10181     10182
     10178     10181     10183     10178     10181     10184     10182     10181     10183
     10182     10181     10184     10183     10181     10184     10181     10184     10185
     10181     10184     10186     10181     10184     10187     10185     10184     10186
     10185     10184     10187     10186     10184     10187      2810      2809      2811
      2810      2809      2813      2810      2809      2855      2811      2809      2813
      2811      2809      2855      2813      2809      2855      2809      2811      2812
      2809      2813      2814      2809      2813      2815      2809      2813      2816
      2814      2813      2815      2814      2813      2816      2815      2813      2816
      2813      2816      2817      2813      2816      2847      2817      2816      2847
      2816      2817      2818      2816      2817      2819      2818      2817      2819
      2817      2819      2820      2817      2819      2821      2817      2819      2822
      2820      2819      2821      2820      2819      2822      2821      2819      2822
      2819      2822      2823      2819      2822      2824      2819      2822      2845
      2823      2822      2824      2823      2822      2845      2824      2822      2845
      2822      2824      2825      2822      2824      2826      2822      2824      2834
      2825      2824      2826      2825      2824      2834      2826      2824      2834
      2824      2826      2827      2824      2826      2828      2824      2826      2829
      2827      2826      2828      2827      2826      2829      2828      2826      2829
      2826      2829      2830      2826      2829      2831      2826      2829      2832
      2830      2829      2831      2830      2829      2832      2831      2829      2832
      2829      2832      2833      2829      2832      2834      2829      2832      2858
      2833      2832      2834      2833      2832      2858      2834      2832      2858
      2824      2834      2832      2824      2834      2835      2824      2834      2839
      2832      2834      2835      2832      2834      2839      2835      2834      2839
      2834      2835      2836      2834      2835      2837      2834      2835      2838
      2836      2835      2837      2836      2835      2838      2837      2835      2838
      2834      2839      2840      2834      2839      2841      2834      2839      2842
      2840      2839      2841      2840      2839      2842      2841      2839      2842
      2839      2842      2843      2839      2842      2844      2839      2842      2845
      2843      2842      2844      2843      2842      2845      2844      2842      2845
      2822      2845      2842      2822      2845      2846      2822      2845      2847
      2842      2845      2846      2842      2845      2847      2846      2845      2847
      2816      2847      2845      2816      2847      2848      2816      2847      2852
      2845      2847      2848      2845      2847      2852      2848      2847      2852
      2847      2848      2849      2847      2848      2850      2847      2848      2851
      2849      2848      2850      2849      2848      2851      2850      2848      2851
      2847      2852      2853      2847      2852      2854      2847      2852      2855
      2853      2852      2854      2853      2852      2855      2854      2852      2855
      2809      2855      2852      2809      2855      2856      2809      2855      2857
      2852      2855      2856      2852      2855      2857      2856      2855      2857
      2832      2858      2859      2832      2858      2860      2832      2858      2864
      2859      2858      2860      2859      2858      2864      2860      2858      2864
      2858      2860      2861      2858      2860      2862      2858      2860      2863
      2861      2860      2862      2861      2860      2863      2862      2860      2863
      2858      2864      2865      2858      2864      2866      2858      2864      2867
      2865      2864      2866      2865      2864      2867      2866      2864      2867
      2864      2867      2868      2864      2867      2869      2864      2867      2870
      2868      2867      2869      2868      2867      2870      2869      2867      2870
      2867      2870      2871      2867      2870      2872      2867      2870      2873
      2871      2870      2872      2871      2870      2873      2872      2870      2873
      2870      2873      2874      2870      2873      2875      2870      2873      2879
      2874      2873      2875      2874      2873      2879      2875      2873      2879
      2873      2875      2876      2873      2875      2877      2873      2875      2878
      2876      2875      2877      2876      2875      2878      2877      2875      2878
      2873      2879      2880      2873      2879      2881      2873      2879      2882
      2880      2879      2881      2880      2879      2882      2881      2879      2882
      2884      2883      2885      2884      2883      2887      2884      2883      2929
      2885      2883      2887      2885      2883      2929      2887      2883      2929
      2883      2885      2886      2883      2887      2888      2883      2887      2889
      2883      2887      2890      2888      2887      2889      2888      2887      2890
      2889      2887      2890      2887      2890      2891      2887      2890      2921
      2891      2890      2921      2890      2891      2892      2890      2891      2893
      2892      2891      2893      2891      2893      2894      2891      2893      2895
      2891      2893      2896      2894      2893      2895      2894      2893      2896
      2895      2893      2896      2893      2896      2897      2893      2896      2898
      2893      2896      2919      2897      2896      2898      2897      2896      2919
      2898      2896      2919      2896      2898      2899      2896      2898      2900
      2896      2898      2908      2899      2898      2900      2899      2898      2908
      2900      2898      2908      2898      2900      2901      2898      2900      2902
      2898      2900      2903      2901      2900      2902      2901      2900      2903
      2902      2900      2903      2900      2903      2904      2900      2903      2905
      2900      2903      2906      2904      2903      2905      2904      2903      2906
      2905      2903      2906      2903      2906      2907      2903      2906      2908
      2903      2906      2932      2907      2906      2908      2907      2906      2932
      2908      2906      2932      2898      2908      2906      2898      2908      2909
      2898      2908      2913      2906      2908      2909      2906      2908      2913
      2909      2908      2913      2908      2909      2910      2908      2909      2911
      2908      2909      2912      2910      2909      2911      2910      2909      2912
      2911      2909      2912      2908      2913      2914      2908      2913      2915
      2908      2913      2916      2914      2913      2915      2914      2913      2916
      2915      2913      2916      2913      2916      2917      2913      2916      2918
      2913      2916      2919      2917      2916      2918      2917      2916      2919
      2918      2916      2919      2896      2919      2916      2896      2919      2920
      2896      2919      2921      2916      2919      2920      2916      2919      2921
      2920      2919      2921      2890      2921      2919      2890      2921      2922
      2890      2921      2926      2919      2921      2922      2919      2921      2926
      2922      2921      2926      2921      2922      2923      2921      2922      2924
      2921      2922      2925      2923      2922      2924      2923      2922      2925
      2924      2922      2925      2921      2926      2927      2921      2926      2928
      2921      2926      2929      2927      2926      2928      2927      2926      2929
      2928      2926      2929      2883      2929      2926      2883      2929      2930
      2883      2929      2931      2926      2929      2930      2926      2929      2931
      2930      2929      2931      2906      2932      2933      2906      2932      2934
      2906      2932      2938      2933      2932      2934      2933      2932      2938
      2934      2932      2938      2932      2934      2935      2932      2934      2936
      2932      2934      2937      2935      2934      2936      2935      2934      2937
      2936      2934      2937      2932      2938      2939      2932      2938      2940
      2932      2938      2941      2939      2938      2940      2939      2938      2941
      2940      2938      2941      2938      2941      2942      2938      2941      2943
      2938      2941      2944      2942      2941      2943      2942      2941      2944
      2943      2941      2944      2941      2944      2945      2941      2944      2946
      2941      2944      2947      2945      2944      2946      2945      2944      2947
      2946      2944      2947      2944      2947      2948      2944      2947      2949
      2944      2947      2953      2948      2947      2949      2948      2947      2953
      2949      2947      2953      2947      2949      2950      2947      2949      2951
      2947      2949      2952      2950      2949      2951      2950      2949      2952
      2951      2949      2952      2947      2953      2954      2947      2953      2955
      2947      2953      2956      2954      2953      2955      2954      2953      2956
      2955      2953      2956     10189     10188     10193     10189     10188     10197
     10189     10188     10201     10193     10188     10197     10193     10188     10201
     10197     10188     10201     10188     10189     10190     10188     10189     10191
     10188     10189     10192     10190     10189     10191     10190     10189     10192
     10191     10189     10192     10188     10193     10194     10188     10193     10195
     10188     10193     10196     10194     10193     10195     10194     10193     10196
     10195     10193     10196     10188     10197     10198     10188     10197     10199
     10188     10197     10200     10198     10197     10199     10198     10197     10200
     10199     10197     10200     10188     10201     10202     10188     10201     10203
     10188     10201     10204     10202     10201     10203     10202     10201     10204
     10203     10201     10204     10201     10204     10205     10201     10204     10206
     10201     10204     10211     10205     10204     10206     10205     10204     10211
     10206     10204     10211     10208     10207     10209     10208     10207     10210
     10208     10207     10211     10209     10207     10210     10209     10207     10211
     10210     10207     10211     10207     10210     10212     10204     10211     10207
     10210     10212     10213     10210     10212     10214     10210     10212     10217
     10213     10212     10214     10213     10212     10217     10214     10212     10217
     10216     10215     10217     10216     10215     10267     10217     10215     10267
     10212     10217     10215     10212     10217     10218     10212     10217     10219
     10215     10217     10218     10215     10217     10219     10218     10217     10219
     10217     10219     10220     10217     10219     10221     10217     10219     10223
     10220     10219     10221     10220     10219     10223     10221     10219     10223
     10219     10221     10222     10219     10223     10224     10219     10223     10225
     10224     10223     10225     10223     10225     10226     10223     10225     10227
     10226     10225     10227     10225     10227     10228     10225     10227     10229
     10225     10227     10230     10228     10227     10229     10228     10227     10230
     10229     10227     10230     10227     10230     10231     10227     10230     10232
     10227     10230     10233     10231     10230     10232     10231     10230     10233
     10232     10230     10233     10230     10233     10234     10230     10233     10235
     10230     10233     10236     10234     10233     10235     10234     10233     10236
     10235     10233     10236     10233     10236     10237     10233     10236     10238
     10233     10236     10239     10237     10236     10238     10237     10236     10239
     10238     10236     10239     10236     10239     10240     10236     10239     10241
     10236     10239     10242     10240     10239     10241     10240     10239     10242
     10241     10239     10242     10239     10242     10243     10239     10242     10244
     10239     10242     10245     10243     10242     10244     10243     10242     10245
     10244     10242     10245     10242     10245     10246     10242     10245     10247
     10242     10245     10248     10246     10245     10247     10246     10245     10248
     10247     10245     10248     10245     10248     10249     10245     10248     10250
     10245     10248     10251     10249     10248     10250     10249     10248     10251
     10250     10248     10251     10248     10251     10252     10248     10251     10253
     10248     10251     10254     10252     10251     10253     10252     10251     10254
     10253     10251     10254     10251     10254     10255     10251     10254     10256
     10251     10254     10257     10255     10254     10256     10255     10254     10257
     10256     10254     10257     10254     10257     10258     10254     10257     10259
     10254     10257     10260     10258     10257     10259     10258     10257     10260
     10259     10257     10260     10257     10260     10261     10257     10260     10262
     10257     10260     10263     10261     10260     10262     10261     10260     10263
     10262     10260     10263     10260     10263     10264     10260     10263     10265
     10260     10263     10266     10264     10263     10265     10264     10263     10266
     10265     10263     10266     10215     10267     10268     10215     10267     10269
     10268     10267     10269     10267     10269     10270     10267     10269     10271
     10267     10269     10272     10270     10269     10271     10270     10269     10272
     10271     10269     10272     10269     10272     10273     10269     10272     10274
     10269     10272     10275     10273     10272     10274     10273     10272     10275
     10274     10272     10275     10272     10275     10276     10272     10275     10277
     10272     10275     10278     10276     10275     10277     10276     10275     10278
     10277     10275     10278     10275     10278     10279     10275     10278     10280
     10275     10278     10281     10279     10278     10280     10279     10278     10281
     10280     10278     10281     10278     10281     10282     10278     10281     10283
     10278     10281     10284     10282     10281     10283     10282     10281     10284
     10283     10281     10284     10281     10284     10285     10281     10284     10286
     10281     10284     10287     10285     10284     10286     10285     10284     10287
     10286     10284     10287     10284     10287     10288     10284     10287     10289
     10284     10287     10290     10288     10287     10289     10288     10287     10290
     10289     10287     10290     10287     10290     10291     10287     10290     10292
     10291     10290     10292     10290     10292     10293     10290     10292     10294
     10293     10292     10294     10292     10294     10295     10292     10294     10296
     10292     10294     10297     10295     10294     10296     10295     10294     10297
     10296     10294     10297     10294     10297     10298     10294     10297     10299
     10294     10297     10300     10298     10297     10299     10298     10297     10300
     10299     10297     10300     10297     10300     10301     10297     10300     10302
     10297     10300     10303     10301     10300     10302     10301     10300     10303
     10302     10300     10303     10300     10303     10304     10300     10303     10305
     10300     10303     10306     10304     10303     10305     10304     10303     10306
     10305     10303     10306     10303     10306     10307     10303     10306     10308
     10303     10306     10309     10307     10306     10308     10307     10306     10309
     10308     10306     10309     10306     10309     10310     10306     10309     10311
     10306     10309     10312     10310     10309     10311     10310     10309     10312
     10311     10309     10312     10309     10312     10313     10309     10312     10314
     10309     10312     10315     10313     10312     10314     10313     10312     10315
     10314     10312     10315     10312     10315     10316     10312     10315     10317
     10312     10315     10318     10316     10315     10317     10316     10315     10318
     10317     10315     10318      6937      6936      6938      6937      6936      6939
      6937      6936      6940      6938      6936      6939      6938      6936      6940
      6939      6936      6940      6936      6940      6941      6936      6940      6942
      6936      6940      6943      6941      6940      6942      6941      6940      6943
      6942      6940      6943      6940      6943      6944      6940      6943      6945
      6940      6943      6949      6944      6943      6945      6944      6943      6949
      6945      6943      6949      6947      6946      6948      6947      6946      6949
      6947      6946      6950      6948      6946      6949      6948      6946      6950
      6949      6946      6950      6943      6949      6946      6946      6950      6951
      6950      6951      6952      6950      6951      6953      6950      6951      6954
      6952      6951      6953      6952      6951      6954      6953      6951      6954
      6951      6954      6955      6951      6954      6956      6951      6954      6962
      6955      6954      6956      6955      6954      6962      6956      6954      6962
      6954      6956      6957      6956      6957      6958      6956      6957      6959
      6958      6957      6959      6957      6959      6960      6957      6959      6961
      6957      6959      6971      6960      6959      6961      6960      6959      6971
      6961      6959      6971      6954      6962      6963      6954      6962      6964
      6954      6962      6965      6963      6962      6964      6963      6962      6965
      6964      6962      6965      6962      6965      6966      6965      6966      6967
      6965      6966      6968      6967      6966      6968      6966      6968      6969
      6966      6968      6970      6966      6968      7018      6969      6968      6970
      6969      6968      7018      6970      6968      7018      6959      6971      6972
      6959      6971      6973      6959      6971      6974      6972      6971      6973
      6972      6971      6974      6973      6971      6974      6971      6974      6975
      6971      6974      6976      6971      6974      6977      6975      6974      6976
      6975      6974      6977      6976      6974      6977      6974      6977      6978
      6974      6977      6979      6974      6977      6980      6978      6977      6979
      6978      6977      6980      6979      6977      6980      6977      6980      6981
      6977      6980      6982      6977      6980      6983      6981      6980      6982
      6981      6980      6983      6982      6980      6983      6980      6983      6984
      6980      6983      6985      6980      6983      6986      6984      6983      6985
      6984      6983      6986      6985      6983      6986      6983      6986      6987
      6983      6986      6988      6983      6986      6989      6987      6986      6988
      6987      6986      6989      6988      6986      6989      6986      6989      6990
      6986      6989      6991      6990      6989      6991      6989      6991      6992
      6989      6991      6993      6992      6991      6993      6991      6993      6994
      6991      6993      6995      6991      6993      6996      6994      6993      6995
      6994      6993      6996      6995      6993      6996      6993      6996      6997
      6993      6996      6998      6993      6996      6999      6997      6996      6998
      6997      6996      6999      6998      6996      6999      6996      6999      7000
      6996      6999      7001      6996      6999      7002      7000      6999      7001
      7000      6999      7002      7001      6999      7002      6999      7002      7003
      6999      7002      7004      6999      7002      7005      7003      7002      7004
      7003      7002      7005      7004      7002      7005      7002      7005      7006
      7002      7005      7007      7002      7005      7008      7006      7005      7007
      7006      7005      7008      7007      7005      7008      7005      7008      7009
      7005      7008      7010      7005      7008      7011      7009      7008      7010
      7009      7008      7011      7010      7008      7011      7008      7011      7012
      7008      7011      7013      7008      7011      7014      7012      7011      7013
      7012      7011      7014      7013      7011      7014      7011      7014      7015
      7011      7014      7016      7011      7014      7017      7015      7014      7016
      7015      7014      7017      7016      7014      7017      6968      7018      7019
      6968      7018      7020      6968      7018      7021      7019      7018      7020
      7019      7018      7021      7020      7018      7021      7018      7021      7022
      7018      7021      7023      7018      7021      7024      7022      7021      7023
      7022      7021      7024      7023      7021      7024      7021      7024      7025
      7021      7024      7026      7021      7024      7027      7025      7024      7026
      7025      7024      7027      7026      7024      7027      7024      7027      7028
      7024      7027      7029      7024      7027      7030      7028      7027      7029
      7028      7027      7030      7029      7027      7030      7027      7030      7031
      7027      7030      7032      7027      7030      7033      7031      7030      7032
      7031      7030      7033      7032      7030      7033      7030      7033      7034
      7030      7033      7035      7030      7033      7036      7034      7033      7035
      7034      7033      7036      7035      7033      7036      7033      7036      7037
      7033      7036      7038      7033      7036      7039      7037      7036      7038
      7037      7036      7039      7038      7036      7039      7036      7039      7040
      7036      7039      7041      7036      7039      7042      7040      7039      7041
      7040      7039      7042      7041      7039      7042      7039      7042      7043
      7039      7042      7044      7039      7042      7045      7043      7042      7044
      7043      7042      7045      7044      7042      7045      7042      7045      7046
      7042      7045      7047      7042      7045      7048      7046      7045      7047
      7046      7045      7048      7047      7045      7048      7045      7048      7049
      7045      7048      7050      7045      7048      7051      7049      7048      7050
      7049      7048      7051      7050      7048      7051      7048      7051      7052
      7048      7051      7053      7048      7051      7054      7052      7051      7053
      7052      7051      7054      7053      7051      7054      7051      7054      7055
      7051      7054      7056      7051      7054      7057      7055      7054      7056
      7055      7054      7057      7056      7054      7057      7054      7057      7058
      7054      7057      7059      7054      7057      7060      7058      7057      7059
      7058      7057      7060      7059      7057      7060      7057      7060      7061
      7057      7060      7062      7057      7060      7063      7061      7060      7062
      7061      7060      7063      7062      7060      7063      7060      7063      7064
      7060      7063      7065      7060      7063      7066      7064      7063      7065
      7064      7063      7066      7065      7063      7066     10320     10319     10324
     10320     10319     10328     10320     10319     10332     10324     10319     10328
     10324     10319     10332     10328     10319     10332     10319     10320     10321
     10319     10320     10322     10319     10320     10323     10321     10320     10322
     10321     10320     10323     10322     10320     10323     10319     10324     10325
     10319     10324     10326     10319     10324     10327     10325     10324     10326
     10325     10324     10327     10326     10324     10327     10319     10328     10329
     10319     10328     10330     10319     10328     10331     10329     10328     10330
     10329     10328     10331     10330     10328     10331     10319     10332     10333
     10319     10332     10334     10319     10332     10335     10333     10332     10334
     10333     10332     10335     10334     10332     10335     10332     10335     10336
     10332     10335     10337     10332     10335     10342     10336     10335     10337
     10336     10335     10342     10337     10335     10342     10339     10338     10340
     10339     10338     10341     10339     10338     10342     10340     10338     10341
     10340     10338     10342     10341     10338     10342     10338     10341     10343
     10335     10342     10338     10341     10343     10344     10341     10343     10345
     10341     10343     10348     10344     10343     10345     10344     10343     10348
     10345     10343     10348     10347     10346     10348     10347     10346     10398
     10348     10346     10398     10343     10348     10346     10343     10348     10349
     10343     10348     10350     10346     10348     10349     10346     10348     10350
     10349     10348     10350     10348     10350     10351     10348     10350     10352
     10348     10350     10354     10351     10350     10352     10351     10350     10354
     10352     10350     10354     10350     10352     10353     10350     10354     10355
     10350     10354     10356     10355     10354     10356     10354     10356     10357
     10354     10356     10358     10357     10356     10358     10356     10358     10359
     10356     10358     10360     10356     10358     10361     10359     10358     10360
     10359     10358     10361     10360     10358     10361     10358     10361     10362
     10358     10361     10363     10358     10361     10364     10362     10361     10363
     10362     10361     10364     10363     10361     10364     10361     10364     10365
     10361     10364     10366     10361     10364     10367     10365     10364     10366
     10365     10364     10367     10366     10364     10367     10364     10367     10368
     10364     10367     10369     10364     10367     10370     10368     10367     10369
     10368     10367     10370     10369     10367     10370     10367     10370     10371
     10367     10370     10372     10367     10370     10373     10371     10370     10372
     10371     10370     10373     10372     10370     10373     10370     10373     10374
     10370     10373     10375     10370     10373     10376     10374     10373     10375
     10374     10373     10376     10375     10373     10376     10373     10376     10377
     10373     10376     10378     10373     10376     10379     10377     10376     10378
     10377     10376     10379     10378     10376     10379     10376     10379     10380
     10376     10379     10381     10376     10379     10382     10380     10379     10381
     10380     10379     10382     10381     10379     10382     10379     10382     10383
     10379     10382     10384     10379     10382     10385     10383     10382     10384
     10383     10382     10385     10384     10382     10385     10382     10385     10386
     10382     10385     10387     10382     10385     10388     10386     10385     10387
     10386     10385     10388     10387     10385     10388     10385     10388     10389
     10385     10388     10390     10385     10388     10391     10389     10388     10390
     10389     10388     10391     10390     10388     10391     10388     10391     10392
     10388     10391     10393     10388     10391     10394     10392     10391     10393
     10392     10391     10394     10393     10391     10394     10391     10394     10395
     10391     10394     10396     10391     10394     10397     10395     10394     10396
     10395     10394     10397     10396     10394     10397     10346     10398     10399
     10346     10398     10400     10399     10398     10400     10398     10400     10401
     10398     10400     10402     10398     10400     10403     10401     10400     10402
     10401     10400     10403     10402     10400     10403     10400     10403     10404
     10400     10403     10405     10400     10403     10406     10404     10403     10405
     10404     10403     10406     10405     10403     10406     10403     10406     10407
     10403     10406     10408     10403     10406     10409     10407     10406     10408
     10407     10406     10409     10408     10406     10409     10406     10409     10410
     10406     10409     10411     10406     10409     10412     10410     10409     10411
     10410     10409     10412     10411     10409     10412     10409     10412     10413
     10409     10412     10414     10409     10412     10415     10413     10412     10414
     10413     10412     10415     10414     10412     10415     10412     10415     10416
     10412     10415     10417     10412     10415     10418     10416     10415     10417
     10416     10415     10418     10417     10415     10418     10415     10418     10419
     10415     10418     10420     10415     10418     10421     10419     10418     10420
     10419     10418     10421     10420     10418     10421     10418     10421     10422
     10418     10421     10423     10422     10421     10423     10421     10423     10424
     10421     10423     10425     10424     10423     10425     10423     10425     10426
     10423     10425     10427     10423     10425     10428     10426     10425     10427
     10426     10425     10428     10427     10425     10428     10425     10428     10429
     10425     10428     10430     10425     10428     10431     10429     10428     10430
     10429     10428     10431     10430     10428     10431     10428     10431     10432
     10428     10431     10433     10428     10431     10434     10432     10431     10433
     10432     10431     10434     10433     10431     10434     10431     10434     10435
     10431     10434     10436     10431     10434     10437     10435     10434     10436
     10435     10434     10437     10436     10434     10437     10434     10437     10438
     10434     10437     10439     10434     10437     10440     10438     10437     10439
     10438     10437     10440     10439     10437     10440     10437     10440     10441
     10437     10440     10442     10437     10440     10443     10441     10440     10442
     10441     10440     10443     10442     10440     10443     10440     10443     10444
     10440     10443     10445     10440     10443     10446     10444     10443     10445
     10444     10443     10446     10445     10443     10446     10443     10446     10447
     10443     10446     10448     10443     10446     10449     10447     10446     10448
     10447     10446     10449     10448     10446     10449      2958      2957      2959
      2958      2957      2961      2958      2957      3003      2959      2957      2961
      2959      2957      3003      2961      2957      3003      2957      2959      2960
      2957      2961      2962      2957      2961      2963      2957      2961      2964
      2962      2961      2963      2962      2961      2964      2963      2961      2964
      2961      2964      2965      2961      2964      2995      2965      2964      2995
      2964      2965      2966      2964      2965      2967      2966      2965      2967
      2965      2967      2968      2965      2967      2969      2965      2967      2970
      2968      2967      2969      2968      2967      2970      2969      2967      2970
      2967      2970      2971      2967      2970      2972      2967      2970      2993
      2971      2970      2972      2971      2970      2993      2972      2970      2993
      2970      2972      2973      2970      2972      2974      2970      2972      2982
      2973      2972      2974      2973      2972      2982      2974      2972      2982
      2972      2974      2975      2972      2974      2976      2972      2974      2977
      2975      2974      2976      2975      2974      2977      2976      2974      2977
      2974      2977      2978      2974      2977      2979      2974      2977      2980
      2978      2977      2979      2978      2977      2980      2979      2977      2980
      2977      2980      2981      2977      2980      2982      2977      2980      3006
      2981      2980      2982      2981      2980      3006      2982      2980      3006
      2972      2982      2980      2972      2982      2983      2972      2982      2987
      2980      2982      2983      2980      2982      2987      2983      2982      2987
      2982      2983      2984      2982      2983      2985      2982      2983      2986
      2984      2983      2985      2984      2983      2986      2985      2983      2986
      2982      2987      2988      2982      2987      2989      2982      2987      2990
      2988      2987      2989      2988      2987      2990      2989      2987      2990
      2987      2990      2991      2987      2990      2992      2987      2990      2993
      2991      2990      2992      2991      2990      2993      2992      2990      2993
      2970      2993      2990      2970      2993      2994      2970      2993      2995
      2990      2993      2994      2990      2993      2995      2994      2993      2995
      2964      2995      2993      2964      2995      2996      2964      2995      3000
      2993      2995      2996      2993      2995      3000      2996      2995      3000
      2995      2996      2997      2995      2996      2998      2995      2996      2999
      2997      2996      2998      2997      2996      2999      2998      2996      2999
      2995      3000      3001      2995      3000      3002      2995      3000      3003
      3001      3000      3002      3001      3000      3003      3002      3000      3003
      2957      3003      3000      2957      3003      3004      2957      3003      3005
      3000      3003      3004      3000      3003      3005      3004      3003      3005
      2980      3006      3007      2980      3006      3008      2980      3006      3012
      3007      3006      3008      3007      3006      3012      3008      3006      3012
      3006      3008      3009      3006      3008      3010      3006      3008      3011
      3009      3008      3010      3009      3008      3011      3010      3008      3011
      3006      3012      3013      3006      3012      3014      3006      3012      3015
      3013      3012      3014      3013      3012      3015      3014      3012      3015
      3012      3015      3016      3012      3015      3017      3012      3015      3018
      3016      3015      3017      3016      3015      3018      3017      3015      3018
      3015      3018      3019      3015      3018      3020      3015      3018      3021
      3019      3018      3020      3019      3018      3021      3020      3018      3021
      3018      3021      3022      3018      3021      3023      3018      3021      3027
      3022      3021      3023      3022      3021      3027      3023      3021      3027
      3021      3023      3024      3021      3023      3025      3021      3023      3026
      3024      3023      3025      3024      3023      3026      3025      3023      3026
      3021      3027      3028      3021      3027      3029      3021      3027      3030
      3028      3027      3029      3028      3027      3030      3029      3027      3030
      3032      3031      3033      3032      3031      3035      3032      3031      3077
      3033      3031      3035      3033      3031      3077      3035      3031      3077
      3031      3033      3034      3031      3035      3036      3031      3035      3037
      3031      3035      3038      3036      3035      3037      3036      3035      3038
      3037      3035      3038      3035      3038      3039      3035      3038      3069
      3039      3038      3069      3038      3039      3040      3038      3039      3041
      3040      3039      3041      3039      3041      3042      3039      3041      3043
      3039      3041      3044      3042      3041      3043      3042      3041      3044
      3043      3041      3044      3041      3044      3045      3041      3044      3046
      3041      3044      3067      3045      3044      3046      3045      3044      3067
      3046      3044      3067      3044      3046      3047      3044      3046      3048
      3044      3046      3056      3047      3046      3048      3047      3046      3056
      3048      3046      3056      3046      3048      3049      3046      3048      3050
      3046      3048      3051      3049      3048      3050      3049      3048      3051
      3050      3048      3051      3048      3051      3052      3048      3051      3053
      3048      3051      3054      3052      3051      3053      3052      3051      3054
      3053      3051      3054      3051      3054      3055      3051      3054      3056
      3051      3054      3080      3055      3054      3056      3055      3054      3080
      3056      3054      3080      3046      3056      3054      3046      3056      3057
      3046      3056      3061      3054      3056      3057      3054      3056      3061
      3057      3056      3061      3056      3057      3058      3056      3057      3059
      3056      3057      3060      3058      3057      3059      3058      3057      3060
      3059      3057      3060      3056      3061      3062      3056      3061      3063
      3056      3061      3064      3062      3061      3063      3062      3061      3064
      3063      3061      3064      3061      3064      3065      3061      3064      3066
      3061      3064      3067      3065      3064      3066      3065      3064      3067
      3066      3064      3067      3044      3067      3064      3044      3067      3068
      3044      3067      3069      3064      3067      3068      3064      3067      3069
      3068      3067      3069      3038      3069      3067      3038      3069      3070
      3038      3069      3074      3067      3069      3070      3067      3069      3074
      3070      3069      3074      3069      3070      3071      3069      3070      3072
      3069      3070      3073      3071      3070      3072      3071      3070      3073
      3072      3070      3073      3069      3074      3075      3069      3074      3076
      3069      3074      3077      3075      3074      3076      3075      3074      3077
      3076      3074      3077      3031      3077      3074      3031      3077      3078
      3031      3077      3079      3074      3077      3078      3074      3077      3079
      3078      3077      3079      3054      3080      3081      3054      3080      3082
      3054      3080      3086      3081      3080      3082      3081      3080      3086
      3082      3080      3086      3080      3082      3083      3080      3082      3084
      3080      3082      3085      3083      3082      3084      3083      3082      3085
      3084      3082      3085      3080      3086      3087      3080      3086      3088
      3080      3086      3089      3087      3086      3088      3087      3086      3089
      3088      3086      3089      3086      3089      3090      3086      3089      3091
      3086      3089      3092      3090      3089      3091      3090      3089      3092
      3091      3089      3092      3089      3092      3093      3089      3092      3094
      3089      3092      3095      3093      3092      3094      3093      3092      3095
      3094      3092      3095      3092      3095      3096      3092      3095      3097
      3092      3095      3101      3096      3095      3097      3096      3095      3101
      3097      3095      3101      3095      3097      3098      3095      3097      3099
      3095      3097      3100      3098      3097      3099      3098      3097      3100
      3099      3097      3100      3095      3101      3102      3095      3101      3103
      3095      3101      3104      3102      3101      3103      3102      3101      3104
      3103      3101      3104      3106      3105      3107      3106      3105      3109
      3106      3105      3151      3107      3105      3109      3107      3105      3151
      3109      3105      3151      3105      3107      3108      3105      3109      3110
      3105      3109      3111      3105      3109      3112      3110      3109      3111
      3110      3109      3112      3111      3109      3112      3109      3112      3113
      3109      3112      3143      3113      3112      3143      3112      3113      3114
      3112      3113      3115      3114      3113      3115      3113      3115      3116
      3113      3115      3117      3113      3115      3118      3116      3115      3117
      3116      3115      3118      3117      3115      3118      3115      3118      3119
      3115      3118      3120      3115      3118      3141      3119      3118      3120
      3119      3118      3141      3120      3118      3141      3118      3120      3121
      3118      3120      3122      3118      3120      3130      3121      3120      3122
      3121      3120      3130      3122      3120      3130      3120      3122      3123
      3120      3122      3124      3120      3122      3125      3123      3122      3124
      3123      3122      3125      3124      3122      3125      3122      3125      3126
      3122      3125      3127      3122      3125      3128      3126      3125      3127
      3126      3125      3128      3127      3125      3128      3125      3128      3129
      3125      3128      3130      3125      3128      3154      3129      3128      3130
      3129      3128      3154      3130      3128      3154      3120      3130      3128
      3120      3130      3131      3120      3130      3135      3128      3130      3131
      3128      3130      3135      3131      3130      3135      3130      3131      3132
      3130      3131      3133      3130      3131      3134      3132      3131      3133
      3132      3131      3134      3133      3131      3134      3130      3135      3136
      3130      3135      3137      3130      3135      3138      3136      3135      3137
      3136      3135      3138      3137      3135      3138      3135      3138      3139
      3135      3138      3140      3135      3138      3141      3139      3138      3140
      3139      3138      3141      3140      3138      3141      3118      3141      3138
      3118      3141      3142      3118      3141      3143      3138      3141      3142
      3138      3141      3143      3142      3141      3143      3112      3143      3141
      3112      3143      3144      3112      3143      3148      3141      3143      3144
      3141      3143      3148      3144      3143      3148      3143      3144      3145
      3143      3144      3146      3143      3144      3147      3145      3144      3146
      3145      3144      3147      3146      3144      3147      3143      3148      3149
      3143      3148      3150      3143      3148      3151      3149      3148      3150
      3149      3148      3151      3150      3148      3151      3105      3151      3148
      3105      3151      3152      3105      3151      3153      3148      3151      3152
      3148      3151      3153      3152      3151      3153      3128      3154      3155
      3128      3154      3156      3128      3154      3160      3155      3154      3156
      3155      3154      3160      3156      3154      3160      3154      3156      3157
      3154      3156      3158      3154      3156      3159      3157      3156      3158
      3157      3156      3159      3158      3156      3159      3154      3160      3161
      3154      3160      3162      3154      3160      3163      3161      3160      3162
      3161      3160      3163      3162      3160      3163      3160      3163      3164
      3160      3163      3165      3160      3163      3166      3164      3163      3165
      3164      3163      3166      3165      3163      3166      3163      3166      3167
      3163      3166      3168      3163      3166      3169      3167      3166      3168
      3167      3166      3169      3168      3166      3169      3166      3169      3170
      3166      3169      3171      3166      3169      3175      3170      3169      3171
      3170      3169      3175      3171      3169      3175      3169      3171      3172
      3169      3171      3173      3169      3171      3174      3172      3171      3173
      3172      3171      3174      3173      3171      3174      3169      3175      3176
      3169      3175      3177      3169      3175      3178      3176      3175      3177
      3176      3175      3178      3177      3175      3178     10451     10450     10455
     10451     10450     10459     10451     10450     10463     10455     10450     10459
     10455     10450     10463     10459     10450     10463     10450     10451     10452
     10450     10451     10453     10450     10451     10454     10452     10451     10453
     10452     10451     10454     10453     10451     10454     10450     10455     10456
     10450     10455     10457     10450     10455     10458     10456     10455     10457
     10456     10455     10458     10457     10455     10458     10450     10459     10460
     10450     10459     10461     10450     10459     10462     10460     10459     10461
     10460     10459     10462     10461     10459     10462     10450     10463     10464
     10450     10463     10465     10450     10463     10466     10464     10463     10465
     10464     10463     10466     10465     10463     10466     10463     10466     10467
     10463     10466     10468     10463     10466     10473     10467     10466     10468
     10467     10466     10473     10468     10466     10473     10470     10469     10471
     10470     10469     10472     10470     10469     10473     10471     10469     10472
     10471     10469     10473     10472     10469     10473     10469     10472     10474
     10466     10473     10469     10472     10474     10475     10472     10474     10476
     10472     10474     10479     10475     10474     10476     10475     10474     10479
     10476     10474     10479     10478     10477     10479     10478     10477     10529
     10479     10477     10529     10474     10479     10477     10474     10479     10480
     10474     10479     10481     10477     10479     10480     10477     10479     10481
     10480     10479     10481     10479     10481     10482     10479     10481     10483
     10479     10481     10485     10482     10481     10483     10482     10481     10485
     10483     10481     10485     10481     10483     10484     10481     10485     10486
     10481     10485     10487     10486     10485     10487     10485     10487     10488
     10485     10487     10489     10488     10487     10489     10487     10489     10490
     10487     10489     10491     10487     10489     10492     10490     10489     10491
     10490     10489     10492     10491     10489     10492     10489     10492     10493
     10489     10492     10494     10489     10492     10495     10493     10492     10494
     10493     10492     10495     10494     10492     10495     10492     10495     10496
     10492     10495     10497     10492     10495     10498     10496     10495     10497
     10496     10495     10498     10497     10495     10498     10495     10498     10499
     10495     10498     10500     10495     10498     10501     10499     10498     10500
     10499     10498     10501     10500     10498     10501     10498     10501     10502
     10498     10501     10503     10498     10501     10504     10502     10501     10503
     10502     10501     10504     10503     10501     10504     10501     10504     10505
     10501     10504     10506     10501     10504     10507     10505     10504     10506
     10505     10504     10507     10506     10504     10507     10504     10507     10508
     10504     10507     10509     10504     10507     10510     10508     10507     10509
     10508     10507     10510     10509     10507     10510     10507     10510     10511
     10507     10510     10512     10507     10510     10513     10511     10510     10512
     10511     10510     10513     10512     10510     10513     10510     10513     10514
     10510     10513     10515     10510     10513     10516     10514     10513     10515
     10514     10513     10516     10515     10513     10516     10513     10516     10517
     10513     10516     10518     10513     10516     10519     10517     10516     10518
     10517     10516     10519     10518     10516     10519     10516     10519     10520
     10516     10519     10521     10516     10519     10522     10520     10519     10521
     10520     10519     10522     10521     10519     10522     10519     10522     10523
     10519     10522     10524     10519     10522     10525     10523     10522     10524
     10523     10522     10525     10524     10522     10525     10522     10525     10526
     10522     10525     10527     10522     10525     10528     10526     10525     10527
     10526     10525     10528     10527     10525     10528     10477     10529     10530
     10477     10529     10531     10530     10529     10531     10529     10531     10532
     10529     10531     10533     10529     10531     10534     10532     10531     10533
     10532     10531     10534     10533     10531     10534     10531     10534     10535
     10531     10534     10536     10531     10534     10537     10535     10534     10536
     10535     10534     10537     10536     10534     10537     10534     10537     10538
     10534     10537     10539     10534     10537     10540     10538     10537     10539
     10538     10537     10540     10539     10537     10540     10537     10540     10541
     10537     10540     10542     10537     10540     10543     10541     10540     10542
     10541     10540     10543     10542     10540     10543     10540     10543     10544
     10540     10543     10545     10540     10543     10546     10544     10543     10545
     10544     10543     10546     10545     10543     10546     10543     10546     10547
     10543     10546     10548     10543     10546     10549     10547     10546     10548
     10547     10546     10549     10548     10546     10549     10546     10549     10550
     10546     10549     10551     10546     10549     10552     10550     10549     10551
     10550     10549     10552     10551     10549     10552     10549     10552     10553
     10549     10552     10554     10553     10552     10554     10552     10554     10555
     10552     10554     10556     10555     10554     10556     10554     10556     10557
     10554     10556     10558     10554     10556     10559     10557     10556     10558
     10557     10556     10559     10558     10556     10559     10556     10559     10560
     10556     10559     10561     10556     10559     10562     10560     10559     10561
     10560     10559     10562     10561     10559     10562     10559     10562     10563
     10559     10562     10564     10559     10562     10565     10563     10562     10564
     10563     10562     10565     10564     10562     10565     10562     10565     10566
     10562     10565     10567     10562     10565     10568     10566     10565     10567
     10566     10565     10568     10567     10565     10568     10565     10568     10569
     10565     10568     10570     10565     10568     10571     10569     10568     10570
     10569     10568     10571     10570     10568     10571     10568     10571     10572
     10568     10571     10573     10568     10571     10574     10572     10571     10573
     10572     10571     10574     10573     10571     10574     10571     10574     10575
     10571     10574     10576     10571     10574     10577     10575     10574     10576
     10575     10574     10577     10576     10574     10577     10574     10577     10578
     10574     10577     10579     10574     10577     10580     10578     10577     10579
     10578     10577     10580     10579     10577     10580      3180      3179      3181
      3180      3179      3183      3180      3179      3225      3181      3179      3183
      3181      3179      3225      3183      3179      3225      3179      3181      3182
      3179      3183      3184      3179      3183      3185      3179      3183      3186
      3184      3183      3185      3184      3183      3186      3185      3183      3186
      3183      3186      3187      3183      3186      3217      3187      3186      3217
      3186      3187      3188      3186      3187      3189      3188      3187      3189
      3187      3189      3190      3187      3189      3191      3187      3189      3192
      3190      3189      3191      3190      3189      3192      3191      3189      3192
      3189      3192      3193      3189      3192      3194      3189      3192      3215
      3193      3192      3194      3193      3192      3215      3194      3192      3215
      3192      3194      3195      3192      3194      3196      3192      3194      3204
      3195      3194      3196      3195      3194      3204      3196      3194      3204
      3194      3196      3197      3194      3196      3198      3194      3196      3199
      3197      3196      3198      3197      3196      3199      3198      3196      3199
      3196      3199      3200      3196      3199      3201      3196      3199      3202
      3200      3199      3201      3200      3199      3202      3201      3199      3202
      3199      3202      3203      3199      3202      3204      3199      3202      3228
      3203      3202      3204      3203      3202      3228      3204      3202      3228
      3194      3204      3202      3194      3204      3205      3194      3204      3209
      3202      3204      3205      3202      3204      3209      3205      3204      3209
      3204      3205      3206      3204      3205      3207      3204      3205      3208
      3206      3205      3207      3206      3205      3208      3207      3205      3208
      3204      3209      3210      3204      3209      3211      3204      3209      3212
      3210      3209      3211      3210      3209      3212      3211      3209      3212
      3209      3212      3213      3209      3212      3214      3209      3212      3215
      3213      3212      3214      3213      3212      3215      3214      3212      3215
      3192      3215      3212      3192      3215      3216      3192      3215      3217
      3212      3215      3216      3212      3215      3217      3216      3215      3217
      3186      3217      3215      3186      3217      3218      3186      3217      3222
      3215      3217      3218      3215      3217      3222      3218      3217      3222
      3217      3218      3219      3217      3218      3220      3217      3218      3221
      3219      3218      3220      3219      3218      3221      3220      3218      3221
      3217      3222      3223      3217      3222      3224      3217      3222      3225
      3223      3222      3224      3223      3222      3225      3224      3222      3225
      3179      3225      3222      3179      3225      3226      3179      3225      3227
      3222      3225      3226      3222      3225      3227      3226      3225      3227
      3202      3228      3229      3202      3228      3230      3202      3228      3234
      3229      3228      3230      3229      3228      3234      3230      3228      3234
      3228      3230      3231      3228      3230      3232      3228      3230      3233
      3231      3230      3232      3231      3230      3233      3232      3230      3233
      3228      3234      3235      3228      3234      3236      3228      3234      3237
      3235      3234      3236      3235      3234      3237      3236      3234      3237
      3234      3237      3238      3234      3237      3239      3234      3237      3240
      3238      3237      3239      3238      3237      3240      3239      3237      3240
      3237      3240      3241      3237      3240      3242      3237      3240      3243
      3241      3240      3242      3241      3240      3243      3242      3240      3243
      3240      3243      3244      3240      3243      3245      3240      3243      3249
      3244      3243      3245      3244      3243      3249      3245      3243      3249
      3243      3245      3246      3243      3245      3247      3243      3245      3248
      3246      3245      3247      3246      3245      3248      3247      3245      3248
      3243      3249      3250      3243      3249      3251      3243      3249      3252
      3250      3249      3251      3250      3249      3252      3251      3249      3252
     10582     10581     10586     10582     10581     10590     10582     10581     10594
     10586     10581     10590     10586     10581     10594     10590     10581     10594
     10581     10582     10583     10581     10582     10584     10581     10582     10585
     10583     10582     10584     10583     10582     10585     10584     10582     10585
     10581     10586     10587     10581     10586     10588     10581     10586     10589
     10587     10586     10588     10587     10586     10589     10588     10586     10589
     10581     10590     10591     10581     10590     10592     10581     10590     10593
     10591     10590     10592     10591     10590     10593     10592     10590     10593
     10581     10594     10595     10581     10594     10596     10581     10594     10597
     10595     10594     10596     10595     10594     10597     10596     10594     10597
     10594     10597     10598     10594     10597     10599     10594     10597     10604
     10598     10597     10599     10598     10597     10604     10599     10597     10604
     10601     10600     10602     10601     10600     10603     10601     10600     10604
     10602     10600     10603     10602     10600     10604     10603     10600     10604
     10600     10603     10605     10597     10604     10600     10603     10605     10606
     10603     10605     10607     10603     10605     10610     10606     10605     10607
     10606     10605     10610     10607     10605     10610     10609     10608     10610
     10609     10608     10660     10610     10608     10660     10605     10610     10608
     10605     10610     10611     10605     10610     10612     10608     10610     10611
     10608     10610     10612     10611     10610     10612     10610     10612     10613
     10610     10612     10614     10610     10612     10616     10613     10612     10614
     10613     10612     10616     10614     10612     10616     10612     10614     10615
     10612     10616     10617     10612     10616     10618     10617     10616     10618
     10616     10618     10619     10616     10618     10620     10619     10618     10620
     10618     10620     10621     10618     10620     10622     10618     10620     10623
     10621     10620     10622     10621     10620     10623     10622     10620     10623
     10620     10623     10624     10620     10623     10625     10620     10623     10626
     10624     10623     10625     10624     10623     10626     10625     10623     10626
     10623     10626     10627     10623     10626     10628     10623     10626     10629
     10627     10626     10628     10627     10626     10629     10628     10626     10629
     10626     10629     10630     10626     10629     10631     10626     10629     10632
     10630     10629     10631     10630     10629     10632     10631     10629     10632
     10629     10632     10633     10629     10632     10634     10629     10632     10635
     10633     10632     10634     10633     10632     10635     10634     10632     10635
     10632     10635     10636     10632     10635     10637     10632     10635     10638
     10636     10635     10637     10636     10635     10638     10637     10635     10638
     10635     10638     10639     10635     10638     10640     10635     10638     10641
     10639     10638     10640     10639     10638     10641     10640     10638     10641
     10638     10641     10642     10638     10641     10643     10638     10641     10644
     10642     10641     10643     10642     10641     10644     10643     10641     10644
     10641     10644     10645     10641     10644     10646     10641     10644     10647
     10645     10644     10646     10645     10644     10647     10646     10644     10647
     10644     10647     10648     10644     10647     10649     10644     10647     10650
     10648     10647     10649     10648     10647     10650     10649     10647     10650
     10647     10650     10651     10647     10650     10652     10647     10650     10653
     10651     10650     10652     10651     10650     10653     10652     10650     10653
     10650     10653     10654     10650     10653     10655     10650     10653     10656
     10654     10653     10655     10654     10653     10656     10655     10653     10656
     10653     10656     10657     10653     10656     10658     10653     10656     10659
     10657     10656     10658     10657     10656     10659     10658     10656     10659
     10608     10660     10661     10608     10660     10662     10661     10660     10662
     10660     10662     10663     10660     10662     10664     10660     10662     10665
     10663     10662     10664     10663     10662     10665     10664     10662     10665
     10662     10665     10666     10662     10665     10667     10662     10665     10668
     10666     10665     10667     10666     10665     10668     10667     10665     10668
     10665     10668     10669     10665     10668     10670     10665     10668     10671
     10669     10668     10670     10669     10668     10671     10670     10668     10671
     10668     10671     10672     10668     10671     10673     10668     10671     10674
     10672     10671     10673     10672     10671     10674     10673     10671     10674
     10671     10674     10675     10671     10674     10676     10671     10674     10677
     10675     10674     10676     10675     10674     10677     10676     10674     10677
     10674     10677     10678     10674     10677     10679     10674     10677     10680
     10678     10677     10679     10678     10677     10680     10679     10677     10680
     10677     10680     10681     10677     10680     10682     10677     10680     10683
     10681     10680     10682     10681     10680     10683     10682     10680     10683
     10680     10683     10684     10680     10683     10685     10684     10683     10685
     10683     10685     10686     10683     10685     10687     10686     10685     10687
     10685     10687     10688     10685     10687     10689     10685     10687     10690
     10688     10687     10689     10688     10687     10690     10689     10687     10690
     10687     10690     10691     10687     10690     10692     10687     10690     10693
     10691     10690     10692     10691     10690     10693     10692     10690     10693
     10690     10693     10694     10690     10693     10695     10690     10693     10696
     10694     10693     10695     10694     10693     10696     10695     10693     10696
     10693     10696     10697     10693     10696     10698     10693     10696     10699
     10697     10696     10698     10697     10696     10699     10698     10696     10699
     10696     10699     10700     10696     10699     10701     10696     10699     10702
     10700     10699     10701     10700     10699     10702     10701     10699     10702
     10699     10702     10703     10699     10702     10704     10699     10702     10705
     10703     10702     10704     10703     10702     10705     10704     10702     10705
     10702     10705     10706     10702     10705     10707     10702     10705     10708
     10706     10705     10707     10706     10705     10708     10707     10705     10708
     10705     10708     10709     10705     10708     10710     10705     10708     10711
     10709     10708     10710     10709     10708     10711     10710     10708     10711
      7068      7067      7069      7068      7067      7070      7068      7067      7071
      7069      7067      7070      7069      7067      7071      7070      7067      7071
      7067      7071      7072      7067      7071      7073      7067      7071      7074
      7072      7071      7073      7072      7071      7074      7073      7071      7074
      7071      7074      7075      7071      7074      7076      7071      7074      7080
      7075      7074      7076      7075      7074      7080      7076      7074      7080
      7078      7077      7079      7078      7077      7080      7078      7077      7081
      7079      7077      7080      7079      7077      7081      7080      7077      7081
      7074      7080      7077      7077      7081      7082      7081      7082      7083
      7081      7082      7084      7081      7082      7085      7083      7082      7084
      7083      7082      7085      7084      7082      7085      7082      7085      7086
      7082      7085      7087      7082      7085      7093      7086      7085      7087
      7086      7085      7093      7087      7085      7093      7085      7087      7088
      7087      7088      7089      7087      7088      7090      7089      7088      7090
      7088      7090      7091      7088      7090      7092      7088      7090      7102
      7091      7090      7092      7091      7090      7102      7092      7090      7102
      7085      7093      7094      7085      7093      7095      7085      7093      7096
      7094      7093      7095      7094      7093      7096      7095      7093      7096
      7093      7096      7097      7096      7097      7098      7096      7097      7099
      7098      7097      7099      7097      7099      7100      7097      7099      7101
      7097      7099      7149      7100      7099      7101      7100      7099      7149
      7101      7099      7149      7090      7102      7103      7090      7102      7104
      7090      7102      7105      7103      7102      7104      7103      7102      7105
      7104      7102      7105      7102      7105      7106      7102      7105      7107
      7102      7105      7108      7106      7105      7107      7106      7105      7108
      7107      7105      7108      7105      7108      7109      7105      7108      7110
      7105      7108      7111      7109      7108      7110      7109      7108      7111
      7110      7108      7111      7108      7111      7112      7108      7111      7113
      7108      7111      7114      7112      7111      7113      7112      7111      7114
      7113      7111      7114      7111      7114      7115      7111      7114      7116
      7111      7114      7117      7115      7114      7116      7115      7114      7117
      7116      7114      7117      7114      7117      7118      7114      7117      7119
      7114      7117      7120      7118      7117      7119      7118      7117      7120
      7119      7117      7120      7117      7120      7121      7117      7120      7122
      7121      7120      7122      7120      7122      7123      7120      7122      7124
      7123      7122      7124      7122      7124      7125      7122      7124      7126
      7122      7124      7127      7125      7124      7126      7125      7124      7127
      7126      7124      7127      7124      7127      7128      7124      7127      7129
      7124      7127      7130      7128      7127      7129      7128      7127      7130
      7129      7127      7130      7127      7130      7131      7127      7130      7132
      7127      7130      7133      7131      7130      7132      7131      7130      7133
      7132      7130      7133      7130      7133      7134      7130      7133      7135
      7130      7133      7136      7134      7133      7135      7134      7133      7136
      7135      7133      7136      7133      7136      7137      7133      7136      7138
      7133      7136      7139      7137      7136      7138      7137      7136      7139
      7138      7136      7139      7136      7139      7140      7136      7139      7141
      7136      7139      7142      7140      7139      7141      7140      7139      7142
      7141      7139      7142      7139      7142      7143      7139      7142      7144
      7139      7142      7145      7143      7142      7144      7143      7142      7145
      7144      7142      7145      7142      7145      7146      7142      7145      7147
      7142      7145      7148      7146      7145      7147      7146      7145      7148
      7147      7145      7148      7099      7149      7150      7099      7149      7151
      7099      7149      7152      7150      7149      7151      7150      7149      7152
      7151      7149      7152      7149      7152      7153      7149      7152      7154
      7149      7152      7155      7153      7152      7154      7153      7152      7155
      7154      7152      7155      7152      7155      7156      7152      7155      7157
      7152      7155      7158      7156      7155      7157      7156      7155      7158
      7157      7155      7158      7155      7158      7159      7155      7158      7160
      7155      7158      7161      7159      7158      7160      7159      7158      7161
      7160      7158      7161      7158      7161      7162      7158      7161      7163
      7158      7161      7164      7162      7161      7163      7162      7161      7164
      7163      7161      7164      7161      7164      7165      7161      7164      7166
      7161      7164      7167      7165      7164      7166      7165      7164      7167
      7166      7164      7167      7164      7167      7168      7164      7167      7169
      7164      7167      7170      7168      7167      7169      7168      7167      7170
      7169      7167      7170      7167      7170      7171      7167      7170      7172
      7167      7170      7173      7171      7170      7172      7171      7170      7173
      7172      7170      7173      7170      7173      7174      7170      7173      7175
      7170      7173      7176      7174      7173      7175      7174      7173      7176
      7175      7173      7176      7173      7176      7177      7173      7176      7178
      7173      7176      7179      7177      7176      7178      7177      7176      7179
      7178      7176      7179      7176      7179      7180      7176      7179      7181
      7176      7179      7182      7180      7179      7181      7180      7179      7182
      7181      7179      7182      7179      7182      7183      7179      7182      7184
      7179      7182      7185      7183      7182      7184      7183      7182      7185
      7184      7182      7185      7182      7185      7186      7182      7185      7187
      7182      7185      7188      7186      7185      7187      7186      7185      7188
      7187      7185      7188      7185      7188      7189      7185      7188      7190
      7185      7188      7191      7189      7188      7190      7189      7188      7191
      7190      7188      7191      7188      7191      7192      7188      7191      7193
      7188      7191      7194      7192      7191      7193      7192      7191      7194
      7193      7191      7194      7191      7194      7195      7191      7194      7196
      7191      7194      7197      7195      7194      7196      7195      7194      7197
      7196      7194      7197      3254      3253      3255      3254      3253      3257
      3254      3253      3299      3255      3253      3257      3255      3253      3299
      3257      3253      3299      3253      3255      3256      3253      3257      3258
      3253      3257      3259      3253      3257      3260      3258      3257      3259
      3258      3257      3260      3259      3257      3260      3257      3260      3261
      3257      3260      3291      3261      3260      3291      3260      3261      3262
      3260      3261      3263      3262      3261      3263      3261      3263      3264
      3261      3263      3265      3261      3263      3266      3264      3263      3265
      3264      3263      3266      3265      3263      3266      3263      3266      3267
      3263      3266      3268      3263      3266      3289      3267      3266      3268
      3267      3266      3289      3268      3266      3289      3266      3268      3269
      3266      3268      3270      3266      3268      3278      3269      3268      3270
      3269      3268      3278      3270      3268      3278      3268      3270      3271
      3268      3270      3272      3268      3270      3273      3271      3270      3272
      3271      3270      3273      3272      3270      3273      3270      3273      3274
      3270      3273      3275      3270      3273      3276      3274      3273      3275
      3274      3273      3276      3275      3273      3276      3273      3276      3277
      3273      3276      3278      3273      3276      3302      3277      3276      3278
      3277      3276      3302      3278      3276      3302      3268      3278      3276
      3268      3278      3279      3268      3278      3283      3276      3278      3279
      3276      3278      3283      3279      3278      3283      3278      3279      3280
      3278      3279      3281      3278      3279      3282      3280      3279      3281
      3280      3279      3282      3281      3279      3282      3278      3283      3284
      3278      3283      3285      3278      3283      3286      3284      3283      3285
      3284      3283      3286      3285      3283      3286      3283      3286      3287
      3283      3286      3288      3283      3286      3289      3287      3286      3288
      3287      3286      3289      3288      3286      3289      3266      3289      3286
      3266      3289      3290      3266      3289      3291      3286      3289      3290
      3286      3289      3291      3290      3289      3291      3260      3291      3289
      3260      3291      3292      3260      3291      3296      3289      3291      3292
      3289      3291      3296      3292      3291      3296      3291      3292      3293
      3291      3292      3294      3291      3292      3295      3293      3292      3294
      3293      3292      3295      3294      3292      3295      3291      3296      3297
      3291      3296      3298      3291      3296      3299      3297      3296      3298
      3297      3296      3299      3298      3296      3299      3253      3299      3296
      3253      3299      3300      3253      3299      3301      3296      3299      3300
      3296      3299      3301      3300      3299      3301      3276      3302      3303
      3276      3302      3304      3276      3302      3308      3303      3302      3304
      3303      3302      3308      3304      3302      3308      3302      3304      3305
      3302      3304      3306      3302      3304      3307      3305      3304      3306
      3305      3304      3307      3306      3304      3307      3302      3308      3309
      3302      3308      3310      3302      3308      3311      3309      3308      3310
      3309      3308      3311      3310      3308      3311      3308      3311      3312
      3308      3311      3313      3308      3311      3314      3312      3311      3313
      3312      3311      3314      3313      3311      3314      3311      3314      3315
      3311      3314      3316      3311      3314      3317      3315      3314      3316
      3315      3314      3317      3316      3314      3317      3314      3317      3318
      3314      3317      3319      3314      3317      3323      3318      3317      3319
      3318      3317      3323      3319      3317      3323      3317      3319      3320
      3317      3319      3321      3317      3319      3322      3320      3319      3321
      3320      3319      3322      3321      3319      3322      3317      3323      3324
      3317      3323      3325      3317      3323      3326      3324      3323      3325
      3324      3323      3326      3325      3323      3326     15822     15821     15823
     15822     15821     15824     15822     15821     15825     15823     15821     15824
     15823     15821     15825     15824     15821     15825     15821     15825     15826
     15821     15825     15827     15821     15825     15828     15826     15825     15827
     15826     15825     15828     15827     15825     15828     15825     15828     15829
     15825     15828     15830     15825     15828     15834     15829     15828     15830
     15829     15828     15834     15830     15828     15834     15832     15831     15833
     15832     15831     15834     15832     15831     15835     15833     15831     15834
     15833     15831     15835     15834     15831     15835     15828     15834     15831
     15831     15835     15836     15835     15836     15837     15835     15836     15838
     15835     15836     15839     15837     15836     15838     15837     15836     15839
     15838     15836     15839     15836     15839     15840     15836     15839     15841
     15836     15839     15847     15840     15839     15841     15840     15839     15847
     15841     15839     15847     15839     15841     15842     15841     15842     15843
     15841     15842     15844     15843     15842     15844     15842     15844     15845
     15842     15844     15846     15842     15844     15856     15845     15844     15846
     15845     15844     15856     15846     15844     15856     15839     15847     15848
     15839     15847     15849     15839     15847     15850     15848     15847     15849
     15848     15847     15850     15849     15847     15850     15847     15850     15851
     15850     15851     15852     15850     15851     15853     15852     15851     15853
     15851     15853     15854     15851     15853     15855     15851     15853     15903
     15854     15853     15855     15854     15853     15903     15855     15853     15903
     15844     15856     15857     15844     15856     15858     15844     15856     15859
     15857     15856     15858     15857     15856     15859     15858     15856     15859
     15856     15859     15860     15856     15859     15861     15856     15859     15862
     15860     15859     15861     15860     15859     15862     15861     15859     15862
     15859     15862     15863     15859     15862     15864     15863     15862     15864
     15862     15864     15865     15862     15864     15866     15865     15864     15866
     15864     15866     15867     15864     15866     15868     15864     15866     15869
     15867     15866     15868     15867     15866     15869     15868     15866     15869
     15866     15869     15870     15866     15869     15871     15870     15869     15871
     15869     15871     15872     15869     15871     15873     15872     15871     15873
     15871     15873     15874     15871     15873     15875     15871     15873     15876
     15874     15873     15875     15874     15873     15876     15875     15873     15876
     15873     15876     15877     15873     15876     15878     15877     15876     15878
     15876     15878     15879     15876     15878     15880     15879     15878     15880
     15878     15880     15881     15878     15880     15882     15878     15880     15883
     15881     15880     15882     15881     15880     15883     15882     15880     15883
     15880     15883     15884     15880     15883     15885     15884     15883     15885
     15883     15885     15886     15883     15885     15887     15886     15885     15887
     15885     15887     15888     15885     15887     15889     15885     15887     15890
     15888     15887     15889     15888     15887     15890     15889     15887     15890
     15887     15890     15891     15887     15890     15892     15887     15890     15893
     15891     15890     15892     15891     15890     15893     15892     15890     15893
     15890     15893     15894     15890     15893     15895     15890     15893     15896
     15894     15893     15895     15894     15893     15896     15895     15893     15896
     15893     15896     15897     15893     15896     15898     15893     15896     15899
     15897     15896     15898     15897     15896     15899     15898     15896     15899
     15896     15899     15900     15896     15899     15901     15896     15899     15902
     15900     15899     15901     15900     15899     15902     15901     15899     15902
     15853     15903     15904     15853     15903     15905     15853     15903     15906
     15904     15903     15905     15904     15903     15906     15905     15903     15906
     15903     15906     15907     15903     15906     15908     15903     15906     15909
     15907     15906     15908     15907     15906     15909     15908     15906     15909
     15906     15909     15910     15906     15909     15911     15906     15909     15912
     15910     15909     15911     15910     15909     15912     15911     15909     15912
     15909     15912     15913     15909     15912     15914     15909     15912     15915
     15913     15912     15914     15913     15912     15915     15914     15912     15915
     15912     15915     15916     15912     15915     15917     15912     15915     15918
     15916     15915     15917     15916     15915     15918     15917     15915     15918
     15915     15918     15919     15915     15918     15920     15915     15918     15921
     15919     15918     15920     15919     15918     15921     15920     15918     15921
     15918     15921     15922     15918     15921     15923     15918     15921     15924
     15922     15921     15923     15922     15921     15924     15923     15921     15924
     15921     15924     15925     15921     15924     15926     15921     15924     15927
     15925     15924     15926     15925     15924     15927     15926     15924     15927
     15924     15927     15928     15924     15927     15929     15924     15927     15930
     15928     15927     15929     15928     15927     15930     15929     15927     15930
     15927     15930     15931     15927     15930     15932     15927     15930     15933
     15931     15930     15932     15931     15930     15933     15932     15930     15933
     15930     15933     15934     15930     15933     15935     15930     15933     15936
     15934     15933     15935     15934     15933     15936     15935     15933     15936
     15933     15936     15937     15933     15936     15938     15933     15936     15939
     15937     15936     15938     15937     15936     15939     15938     15936     15939
     15936     15939     15940     15936     15939     15941     15936     15939     15942
     15940     15939     15941     15940     15939     15942     15941     15939     15942
     15939     15942     15943     15939     15942     15944     15939     15942     15945
     15943     15942     15944     15943     15942     15945     15944     15942     15945
     15942     15945     15946     15942     15945     15947     15942     15945     15948
     15946     15945     15947     15946     15945     15948     15947     15945     15948
     15945     15948     15949     15945     15948     15950     15945     15948     15951
     15949     15948     15950     15949     15948     15951     15950     15948     15951
      3328      3327      3329      3328      3327      3331      3328      3327      3373
      3329      3327      3331      3329      3327      3373      3331      3327      3373
      3327      3329      3330      3327      3331      3332      3327      3331      3333
      3327      3331      3334      3332      3331      3333      3332      3331      3334
      3333      3331      3334      3331      3334      3335      3331      3334      3365
      3335      3334      3365      3334      3335      3336      3334      3335      3337
      3336      3335      3337      3335      3337      3338      3335      3337      3339
      3335      3337      3340      3338      3337      3339      3338      3337      3340
      3339      3337      3340      3337      3340      3341      3337      3340      3342
      3337      3340      3363      3341      3340      3342      3341      3340      3363
      3342      3340      3363      3340      3342      3343      3340      3342      3344
      3340      3342      3352      3343      3342      3344      3343      3342      3352
      3344      3342      3352      3342      3344      3345      3342      3344      3346
      3342      3344      3347      3345      3344      3346      3345      3344      3347
      3346      3344      3347      3344      3347      3348      3344      3347      3349
      3344      3347      3350      3348      3347      3349      3348      3347      3350
      3349      3347      3350      3347      3350      3351      3347      3350      3352
      3347      3350      3376      3351      3350      3352      3351      3350      3376
      3352      3350      3376      3342      3352      3350      3342      3352      3353
      3342      3352      3357      3350      3352      3353      3350      3352      3357
      3353      3352      3357      3352      3353      3354      3352      3353      3355
      3352      3353      3356      3354      3353      3355      3354      3353      3356
      3355      3353      3356      3352      3357      3358      3352      3357      3359
      3352      3357      3360      3358      3357      3359      3358      3357      3360
      3359      3357      3360      3357      3360      3361      3357      3360      3362
      3357      3360      3363      3361      3360      3362      3361      3360      3363
      3362      3360      3363      3340      3363      3360      3340      3363      3364
      3340      3363      3365      3360      3363      3364      3360      3363      3365
      3364      3363      3365      3334      3365      3363      3334      3365      3366
      3334      3365      3370      3363      3365      3366      3363      3365      3370
      3366      3365      3370      3365      3366      3367      3365      3366      3368
      3365      3366      3369      3367      3366      3368      3367      3366      3369
      3368      3366      3369      3365      3370      3371      3365      3370      3372
      3365      3370      3373      3371      3370      3372      3371      3370      3373
      3372      3370      3373      3327      3373      3370      3327      3373      3374
      3327      3373      3375      3370      3373      3374      3370      3373      3375
      3374      3373      3375      3350      3376      3377      3350      3376      3378
      3350      3376      3382      3377      3376      3378      3377      3376      3382
      3378      3376      3382      3376      3378      3379      3376      3378      3380
      3376      3378      3381      3379      3378      3380      3379      3378      3381
      3380      3378      3381      3376      3382      3383      3376      3382      3384
      3376      3382      3385      3383      3382      3384      3383      3382      3385
      3384      3382      3385      3382      3385      3386      3382      3385      3387
      3382      3385      3388      3386      3385      3387      3386      3385      3388
      3387      3385      3388      3385      3388      3389      3385      3388      3390
      3385      3388      3391      3389      3388      3390      3389      3388      3391
      3390      3388      3391      3388      3391      3392      3388      3391      3393
      3388      3391      3397      3392      3391      3393      3392      3391      3397
      3393      3391      3397      3391      3393      3394      3391      3393      3395
      3391      3393      3396      3394      3393      3395      3394      3393      3396
      3395      3393      3396      3391      3397      3398      3391      3397      3399
      3391      3397      3400      3398      3397      3399      3398      3397      3400
      3399      3397      3400      7199      7198      7200      7199      7198      7201
      7199      7198      7202      7200      7198      7201      7200      7198      7202
      7201      7198      7202      7198      7202      7203      7198      7202      7204
      7198      7202      7205      7203      7202      7204      7203      7202      7205
      7204      7202      7205      7202      7205      7206      7202      7205      7207
      7202      7205      7211      7206      7205      7207      7206      7205      7211
      7207      7205      7211      7209      7208      7210      7209      7208      7211
      7209      7208      7212      7210      7208      7211      7210      7208      7212
      7211      7208      7212      7205      7211      7208      7208      7212      7213
      7212      7213      7214      7212      7213      7215      7212      7213      7216
      7214      7213      7215      7214      7213      7216      7215      7213      7216
      7213      7216      7217      7213      7216      7218      7213      7216      7224
      7217      7216      7218      7217      7216      7224      7218      7216      7224
      7216      7218      7219      7218      7219      7220      7218      7219      7221
      7220      7219      7221      7219      7221      7222      7219      7221      7223
      7219      7221      7233      7222      7221      7223      7222      7221      7233
      7223      7221      7233      7216      7224      7225      7216      7224      7226
      7216      7224      7227      7225      7224      7226      7225      7224      7227
      7226      7224      7227      7224      7227      7228      7227      7228      7229
      7227      7228      7230      7229      7228      7230      7228      7230      7231
      7228      7230      7232      7228      7230      7280      7231      7230      7232
      7231      7230      7280      7232      7230      7280      7221      7233      7234
      7221      7233      7235      7221      7233      7236      7234      7233      7235
      7234      7233      7236      7235      7233      7236      7233      7236      7237
      7233      7236      7238      7233      7236      7239      7237      7236      7238
      7237      7236      7239      7238      7236      7239      7236      7239      7240
      7236      7239      7241      7236      7239      7242      7240      7239      7241
      7240      7239      7242      7241      7239      7242      7239      7242      7243
      7239      7242      7244      7239      7242      7245      7243      7242      7244
      7243      7242      7245      7244      7242      7245      7242      7245      7246
      7242      7245      7247      7242      7245      7248      7246      7245      7247
      7246      7245      7248      7247      7245      7248      7245      7248      7249
      7245      7248      7250      7245      7248      7251      7249      7248      7250
      7249      7248      7251      7250      7248      7251      7248      7251      7252
      7248      7251      7253      7252      7251      7253      7251      7253      7254
      7251      7253      7255      7254      7253      7255      7253      7255      7256
      7253      7255      7257      7253      7255      7258      7256      7255      7257
      7256      7255      7258      7257      7255      7258      7255      7258      7259
      7255      7258      7260      7255      7258      7261      7259      7258      7260
      7259      7258      7261      7260      7258      7261      7258      7261      7262
      7258      7261      7263      7258      7261      7264      7262      7261      7263
      7262      7261      7264      7263      7261      7264      7261      7264      7265
      7261      7264      7266      7261      7264      7267      7265      7264      7266
      7265      7264      7267      7266      7264      7267      7264      7267      7268
      7264      7267      7269      7264      7267      7270      7268      7267      7269
      7268      7267      7270      7269      7267      7270      7267      7270      7271
      7267      7270      7272      7267      7270      7273      7271      7270      7272
      7271      7270      7273      7272      7270      7273      7270      7273      7274
      7270      7273      7275      7270      7273      7276      7274      7273      7275
      7274      7273      7276      7275      7273      7276      7273      7276      7277
      7273      7276      7278      7273      7276      7279      7277      7276      7278
      7277      7276      7279      7278      7276      7279      7230      7280      7281
      7230      7280      7282      7230      7280      7283      7281      7280      7282
      7281      7280      7283      7282      7280      7283      7280      7283      7284
      7280      7283      7285      7280      7283      7286      7284      7283      7285
      7284      7283      7286      7285      7283      7286      7283      7286      7287
      7283      7286      7288      7283      7286      7289      7287      7286      7288
      7287      7286      7289      7288      7286      7289      7286      7289      7290
      7286      7289      7291      7286      7289      7292      7290      7289      7291
      7290      7289      7292      7291      7289      7292      7289      7292      7293
      7289      7292      7294      7289      7292      7295      7293      7292      7294
      7293      7292      7295      7294      7292      7295      7292      7295      7296
      7292      7295      7297      7292      7295      7298      7296      7295      7297
      7296      7295      7298      7297      7295      7298      7295      7298      7299
      7295      7298      7300      7295      7298      7301      7299      7298      7300
      7299      7298      7301      7300      7298      7301      7298      7301      7302
      7298      7301      7303      7298      7301      7304      7302      7301      7303
      7302      7301      7304      7303      7301      7304      7301      7304      7305
      7301      7304      7306      7301      7304      7307      7305      7304      7306
      7305      7304      7307      7306      7304      7307      7304      7307      7308
      7304      7307      7309      7304      7307      7310      7308      7307      7309
      7308      7307      7310      7309      7307      7310      7307      7310      7311
      7307      7310      7312      7307      7310      7313      7311      7310      7312
      7311      7310      7313      7312      7310      7313      7310      7313      7314
      7310      7313      7315      7310      7313      7316      7314      7313      7315
      7314      7313      7316      7315      7313      7316      7313      7316      7317
      7313      7316      7318      7313      7316      7319      7317      7316      7318
      7317      7316      7319      7318      7316      7319      7316      7319      7320
      7316      7319      7321      7316      7319      7322      7320      7319      7321
      7320      7319      7322      7321      7319      7322      7319      7322      7323
      7319      7322      7324      7319      7322      7325      7323      7322      7324
      7323      7322      7325      7324      7322      7325      7322      7325      7326
      7322      7325      7327      7322      7325      7328      7326      7325      7327
      7326      7325      7328      7327      7325      7328     15953     15952     15954
     15953     15952     15955     15953     15952     15956     15954     15952     15955
     15954     15952     15956     15955     15952     15956     15952     15956     15957
     15952     15956     15958     15952     15956     15959     15957     15956     15958
     15957     15956     15959     15958     15956     15959     15956     15959     15960
     15956     15959     15961     15956     15959     15965     15960     15959     15961
     15960     15959     15965     15961     15959     15965     15963     15962     15964
     15963     15962     15965     15963     15962     15966     15964     15962     15965
     15964     15962     15966     15965     15962     15966     15959     15965     15962
     15962     15966     15967     15966     15967     15968     15966     15967     15969
     15966     15967     15970     15968     15967     15969     15968     15967     15970
     15969     15967     15970     15967     15970     15971     15967     15970     15972
     15967     15970     15978     15971     15970     15972     15971     15970     15978
     15972     15970     15978     15970     15972     15973     15972     15973     15974
     15972     15973     15975     15974     15973     15975     15973     15975     15976
     15973     15975     15977     15973     15975     15987     15976     15975     15977
     15976     15975     15987     15977     15975     15987     15970     15978     15979
     15970     15978     15980     15970     15978     15981     15979     15978     15980
     15979     15978     15981     15980     15978     15981     15978     15981     15982
     15981     15982     15983     15981     15982     15984     15983     15982     15984
     15982     15984     15985     15982     15984     15986     15982     15984     16034
     15985     15984     15986     15985     15984     16034     15986     15984     16034
     15975     15987     15988     15975     15987     15989     15975     15987     15990
     15988     15987     15989     15988     15987     15990     15989     15987     15990
     15987     15990     15991     15987     15990     15992     15987     15990     15993
     15991     15990     15992     15991     15990     15993     15992     15990     15993
     15990     15993     15994     15990     15993     15995     15994     15993     15995
     15993     15995     15996     15993     15995     15997     15996     15995     15997
     15995     15997     15998     15995     15997     15999     15995     15997     16000
     15998     15997     15999     15998     15997     16000     15999     15997     16000
     15997     16000     16001     15997     16000     16002     16001     16000     16002
     16000     16002     16003     16000     16002     16004     16003     16002     16004
     16002     16004     16005     16002     16004     16006     16002     16004     16007
     16005     16004     16006     16005     16004     16007     16006     16004     16007
     16004     16007     16008     16004     16007     16009     16008     16007     16009
     16007     16009     16010     16007     16009     16011     16010     16009     16011
     16009     16011     16012     16009     16011     16013     16009     16011     16014
     16012     16011     16013     16012     16011     16014     16013     16011     16014
     16011     16014     16015     16011     16014     16016     16015     16014     16016
     16014     16016     16017     16014     16016     16018     16017     16016     16018
     16016     16018     16019     16016     16018     16020     16016     16018     16021
     16019     16018     16020     16019     16018     16021     16020     16018     16021
     16018     16021     16022     16018     16021     16023     16018     16021     16024
     16022     16021     16023     16022     16021     16024     16023     16021     16024
     16021     16024     16025     16021     16024     16026     16021     16024     16027
     16025     16024     16026     16025     16024     16027     16026     16024     16027
     16024     16027     16028     16024     16027     16029     16024     16027     16030
     16028     16027     16029     16028     16027     16030     16029     16027     16030
     16027     16030     16031     16027     16030     16032     16027     16030     16033
     16031     16030     16032     16031     16030     16033     16032     16030     16033
     15984     16034     16035     15984     16034     16036     15984     16034     16037
     16035     16034     16036     16035     16034     16037     16036     16034     16037
     16034     16037     16038     16034     16037     16039     16034     16037     16040
     16038     16037     16039     16038     16037     16040     16039     16037     16040
     16037     16040     16041     16037     16040     16042     16037     16040     16043
     16041     16040     16042     16041     16040     16043     16042     16040     16043
     16040     16043     16044     16040     16043     16045     16040     16043     16046
     16044     16043     16045     16044     16043     16046     16045     16043     16046
     16043     16046     16047     16043     16046     16048     16043     16046     16049
     16047     16046     16048     16047     16046     16049     16048     16046     16049
     16046     16049     16050     16046     16049     16051     16046     16049     16052
     16050     16049     16051     16050     16049     16052     16051     16049     16052
     16049     16052     16053     16049     16052     16054     16049     16052     16055
     16053     16052     16054     16053     16052     16055     16054     16052     16055
     16052     16055     16056     16052     16055     16057     16052     16055     16058
     16056     16055     16057     16056     16055     16058     16057     16055     16058
     16055     16058     16059     16055     16058     16060     16055     16058     16061
     16059     16058     16060     16059     16058     16061     16060     16058     16061
     16058     16061     16062     16058     16061     16063     16058     16061     16064
     16062     16061     16063     16062     16061     16064     16063     16061     16064
     16061     16064     16065     16061     16064     16066     16061     16064     16067
     16065     16064     16066     16065     16064     16067     16066     16064     16067
     16064     16067     16068     16064     16067     16069     16064     16067     16070
     16068     16067     16069     16068     16067     16070     16069     16067     16070
     16067     16070     16071     16067     16070     16072     16067     16070     16073
     16071     16070     16072     16071     16070     16073     16072     16070     16073
     16070     16073     16074     16070     16073     16075     16070     16073     16076
     16074     16073     16075     16074     16073     16076     16075     16073     16076
     16073     16076     16077     16073     16076     16078     16073     16076     16079
     16077     16076     16078     16077     16076     16079     16078     16076     16079
     16076     16079     16080     16076     16079     16081     16076     16079     16082
     16080     16079     16081     16080     16079     16082     16081     16079     16082
       135       134       136       135       134       137       135       134       138
       136       134       137       136       134       138       137       134       138
       134       138       139       134       138       140       134       138       143
       139       138       140       139       138       143       140       138       143
       138       140       141       138       140       142       141       140       142
       138       143       144       138       143       145       138       143       149
       144       143       145       144       143       149       145       143       149
       147       146       148       147       146       149       147       146       150
       148       146       149       148       146       150       149       146       150
       143       149       146       146       150       151       150       151       152
       150       151       153       150       151       154       152       151       153
       152       151       154       153       151       154       151       154       155
       151       154       156       151       154       162       155       154       156
       155       154       162       156       154       162       154       156       157
       156       157       158       156       157       159       158       157       159
       157       159       160       157       159       161       157       159       171
       160       159       161       160       159       171       161       159       171
       154       162       163       154       162       164       154       162       165
       163       162       164       163       162       165       164       162       165
       162       165       166       165       166       167       165       166       168
       167       166       168       166       168       169       166       168       170
       166       168       218       169       168       170       169       168       218
       170       168       218       159       171       172       159       171       173
       159       171       174       172       171       173       172       171       174
       173       171       174       171       174       175       171       174       176
       171       174       177       175       174       176       175       174       177
       176       174       177       174       177       178       174       177       179
       178       177       179       177       179       180       177       179       181
       180       179       181       179       181       182       179       181       183
       179       181       184       182       181       183       182       181       184
       183       181       184       181       184       185       181       184       186
       185       184       186       184       186       187       184       186       188
       187       186       188       186       188       189       186       188       190
       186       188       191       189       188       190       189       188       191
       190       188       191       188       191       192       188       191       193
       192       191       193       191       193       194       191       193       195
       194       193       195       193       195       196       193       195       197
       193       195       198       196       195       197       196       195       198
       197       195       198       195       198       199       195       198       200
       199       198       200       198       200       201       198       200       202
       201       200       202       200       202       203       200       202       204
       200       202       205       203       202       204       203       202       205
       204       202       205       202       205       206       202       205       207
       202       205       208       206       205       207       206       205       208
       207       205       208       205       208       209       205       208       210
       205       208       211       209       208       210       209       208       211
       210       208       211       208       211       212       208       211       213
       208       211       214       212       211       213       212       211       214
       213       211       214       211       214       215       211       214       216
       211       214       217       215       214       216       215       214       217
       216       214       217       168       218       219       168       218       220
       168       218       221       219       218       220       219       218       221
       220       218       221       218       221       222       218       221       223
       218       221       224       222       221       223       222       221       224
       223       221       224       221       224       225       221       224       226
       221       224       227       225       224       226       225       224       227
       226       224       227       224       227       228       224       227       229
       224       227       230       228       227       229       228       227       230
       229       227       230       227       230       231       227       230       232
       227       230       233       231       230       232       231       230       233
       232       230       233       230       233       234       230       233       235
       230       233       236       234       233       235       234       233       236
       235       233       236       233       236       237       233       236       238
       233       236       239       237       236       238       237       236       239
       238       236       239       236       239       240       236       239       241
       236       239       242       240       239       241       240       239       242
       241       239       242       239       242       243       239       242       244
       239       242       245       243       242       244       243       242       245
       244       242       245       242       245       246       242       245       247
       242       245       248       246       245       247       246       245       248
       247       245       248       245       248       249       245       248       250
       245       248       251       249       248       250       249       248       251
       250       248       251       248       251       252       248       251       253
       248       251       254       252       251       253       252       251       254
       253       251       254       251       254       255       251       254       256
       251       254       257       255       254       256       255       254       257
       256       254       257       254       257       258       254       257       259
       254       257       260       258       257       259       258       257       260
       259       257       260       257       260       261       257       260       262
       257       260       263       261       260       262       261       260       263
       262       260       263       260       263       264       260       263       265
       260       263       266       264       263       265       264       263       266
       265       263       266       268       267       269       268       267       270
       268       267       271       269       267       270       269       267       271
       270       267       271       267       271       272       267       271       273
       267       271       276       272       271       273       272       271       276
       273       271       276       271       273       274       271       273       275
       274       273       275       271       276       277       271       276       278
       271       276       282       277       276       278       277       276       282
       278       276       282       280       279       281       280       279       282
       280       279       283       281       279       282       281       279       283
       282       279       283       276       282       279       279       283       284
       283       284       285       283       284       286       283       284       287
       285       284       286       285       284       287       286       284       287
       284       287       288       284       287       289       284       287       295
       288       287       289       288       287       295       289       287       295
       287       289       290       289       290       291       289       290       292
       291       290       292       290       292       293       290       292       294
       290       292       304       293       292       294       293       292       304
       294       292       304       287       295       296       287       295       297
       287       295       298       296       295       297       296       295       298
       297       295       298       295       298       299       298       299       300
       298       299       301       300       299       301       299       301       302
       299       301       303       299       301       351       302       301       303
       302       301       351       303       301       351       292       304       305
       292       304       306       292       304       307       305       304       306
       305       304       307       306       304       307       304       307       308
       304       307       309       304       307       310       308       307       309
       308       307       310       309       307       310       307       310       311
       307       310       312       311       310       312       310       312       313
       310       312       314       313       312       314       312       314       315
       312       314       316       312       314       317       315       314       316
       315       314       317       316       314       317       314       317       318
       314       317       319       318       317       319       317       319       320
       317       319       321       320       319       321       319       321       322
       319       321       323       319       321       324       322       321       323
       322       321       324       323       321       324       321       324       325
       321       324       326       325       324       326       324       326       327
       324       326       328       327       326       328       326       328       329
       326       328       330       326       328       331       329       328       330
       329       328       331       330       328       331       328       331       332
       328       331       333       332       331       333       331       333       334
       331       333       335       334       333       335       333       335       336
       333       335       337       333       335       338       336       335       337
       336       335       338       337       335       338       335       338       339
       335       338       340       335       338       341       339       338       340
       339       338       341       340       338       341       338       341       342
       338       341       343       338       341       344       342       341       343
       342       341       344       343       341       344       341       344       345
       341       344       346       341       344       347       345       344       346
       345       344       347       346       344       347       344       347       348
       344       347       349       344       347       350       348       347       349
       348       347       350       349       347       350       301       351       352
       301       351       353       301       351       354       352       351       353
       352       351       354       353       351       354       351       354       355
       351       354       356       351       354       357       355       354       356
       355       354       357       356       354       357       354       357       358
       354       357       359       354       357       360       358       357       359
       358       357       360       359       357       360       357       360       361
       357       360       362       357       360       363       361       360       362
       361       360       363       362       360       363       360       363       364
       360       363       365       360       363       366       364       363       365
       364       363       366       365       363       366       363       366       367
       363       366       368       363       366       369       367       366       368
       367       366       369       368       366       369       366       369       370
       366       369       371       366       369       372       370       369       371
       370       369       372       371       369       372       369       372       373
       369       372       374       369       372       375       373       372       374
       373       372       375       374       372       375       372       375       376
       372       375       377       372       375       378       376       375       377
       376       375       378       377       375       378       375       378       379
       375       378       380       375       378       381       379       378       380
       379       378       381       380       378       381       378       381       382
       378       381       383       378       381       384       382       381       383
       382       381       384       383       381       384       381       384       385
       381       384       386       381       384       387       385       384       386
       385       384       387       386       384       387       384       387       388
       384       387       389       384       387       390       388       387       389
       388       387       390       389       387       390       387       390       391
       387       390       392       387       390       393       391       390       392
       391       390       393       392       390       393       390       393       394
       390       393       395       390       393       396       394       393       395
       394       393       396       395       393       396       393       396       397
       393       396       398       393       396       399       397       396       398
       397       396       399       398       396       399       401       400       402
       401       400       403       401       400       404       402       400       403
       402       400       404       403       400       404       400       404       405
       400       404       406       400       404       409       405       404       406
       405       404       409       406       404       409       404       406       407
       404       406       408       407       406       408       404       409       410
       404       409       411       404       409       415       410       409       411
       410       409       415       411       409       415       413       412       414
       413       412       415       413       412       416       414       412       415
       414       412       416       415       412       416       409       415       412
       412       416       417       416       417       418       416       417       419
       416       417       420       418       417       419       418       417       420
       419       417       420       417       420       421       417       420       422
       417       420       428       421       420       422       421       420       428
       422       420       428       420       422       423       422       423       424
       422       423       425       424       423       425       423       425       426
       423       425       427       423       425       437       426       425       427
       426       425       437       427       425       437       420       428       429
       420       428       430       420       428       431       429       428       430
       429       428       431       430       428       431       428       431       432
       431       432       433       431       432       434       433       432       434
       432       434       435       432       434       436       432       434       484
       435       434       436       435       434       484       436       434       484
       425       437       438       425       437       439       425       437       440
       438       437       439       438       437       440       439       437       440
       437       440       441       437       440       442       437       440       443
       441       440       442       441       440       443       442       440       443
       440       443       444       440       443       445       444       443       445
       443       445       446       443       445       447       446       445       447
       445       447       448       445       447       449       445       447       450
       448       447       449       448       447       450       449       447       450
       447       450       451       447       450       452       451       450       452
       450       452       453       450       452       454       453       452       454
       452       454       455       452       454       456       452       454       457
       455       454       456       455       454       457       456       454       457
       454       457       458       454       457       459       458       457       459
       457       459       460       457       459       461       460       459       461
       459       461       462       459       461       463       459       461       464
       462       461       463       462       461       464       463       461       464
       461       464       465       461       464       466       465       464       466
       464       466       467       464       466       468       467       466       468
       466       468       469       466       468       470       466       468       471
       469       468       470       469       468       471       470       468       471
       468       471       472       468       471       473       468       471       474
       472       471       473       472       471       474       473       471       474
       471       474       475       471       474       476       471       474       477
       475       474       476       475       474       477       476       474       477
       474       477       478       474       477       479       474       477       480
       478       477       479       478       477       480       479       477       480
       477       480       481       477       480       482       477       480       483
       481       480       482       481       480       483       482       480       483
       434       484       485       434       484       486       434       484       487
       485       484       486       485       484       487       486       484       487
       484       487       488       484       487       489       484       487       490
       488       487       489       488       487       490       489       487       490
       487       490       491       487       490       492       487       490       493
       491       490       492       491       490       493       492       490       493
       490       493       494       490       493       495       490       493       496
       494       493       495       494       493       496       495       493       496
       493       496       497       493       496       498       493       496       499
       497       496       498       497       496       499       498       496       499
       496       499       500       496       499       501       496       499       502
       500       499       501       500       499       502       501       499       502
       499       502       503       499       502       504       499       502       505
       503       502       504       503       502       505       504       502       505
       502       505       506       502       505       507       502       505       508
       506       505       507       506       505       508       507       505       508
       505       508       509       505       508       510       505       508       511
       509       508       510       509       508       511       510       508       511
       508       511       512       508       511       513       508       511       514
       512       511       513       512       511       514       513       511       514
       511       514       515       511       514       516       511       514       517
       515       514       516       515       514       517       516       514       517
       514       517       518       514       517       519       514       517       520
       518       517       519       518       517       520       519       517       520
       517       520       521       517       520       522       517       520       523
       521       520       522       521       520       523       522       520       523
       520       523       524       520       523       525       520       523       526
       524       523       525       524       523       526       525       523       526
       523       526       527       523       526       528       523       526       529
       527       526       528       527       526       529       528       526       529
       526       529       530       526       529       531       526       529       532
       530       529       531       530       529       532       531       529       532
     16084     16083     16085     16084     16083     16086     16084     16083     16087
     16085     16083     16086     16085     16083     16087     16086     16083     16087
     16083     16087     16088     16083     16087     16089     16083     16087     16090
     16088     16087     16089     16088     16087     16090     16089     16087     16090
     16087     16090     16091     16087     16090     16092     16087     16090     16096
     16091     16090     16092     16091     16090     16096     16092     16090     16096
     16094     16093     16095     16094     16093     16096     16094     16093     16097
     16095     16093     16096     16095     16093     16097     16096     16093     16097
     16090     16096     16093     16093     16097     16098     16097     16098     16099
     16097     16098     16100     16097     16098     16101     16099     16098     16100
     16099     16098     16101     16100     16098     16101     16098     16101     16102
     16098     16101     16103     16098     16101     16109     16102     16101     16103
     16102     16101     16109     16103     16101     16109     16101     16103     16104
     16103     16104     16105     16103     16104     16106     16105     16104     16106
     16104     16106     16107     16104     16106     16108     16104     16106     16118
     16107     16106     16108     16107     16106     16118     16108     16106     16118
     16101     16109     16110     16101     16109     16111     16101     16109     16112
     16110     16109     16111     16110     16109     16112     16111     16109     16112
     16109     16112     16113     16112     16113     16114     16112     16113     16115
     16114     16113     16115     16113     16115     16116     16113     16115     16117
     16113     16115     16165     16116     16115     16117     16116     16115     16165
     16117     16115     16165     16106     16118     16119     16106     16118     16120
     16106     16118     16121     16119     16118     16120     16119     16118     16121
     16120     16118     16121     16118     16121     16122     16118     16121     16123
     16118     16121     16124     16122     16121     16123     16122     16121     16124
     16123     16121     16124     16121     16124     16125     16121     16124     16126
     16125     16124     16126     16124     16126     16127     16124     16126     16128
     16127     16126     16128     16126     16128     16129     16126     16128     16130
     16126     16128     16131     16129     16128     16130     16129     16128     16131
     16130     16128     16131     16128     16131     16132     16128     16131     16133
     16132     16131     16133     16131     16133     16134     16131     16133     16135
     16134     16133     16135     16133     16135     16136     16133     16135     16137
     16133     16135     16138     16136     16135     16137     16136     16135     16138
     16137     16135     16138     16135     16138     16139     16135     16138     16140
     16139     16138     16140     16138     16140     16141     16138     16140     16142
     16141     16140     16142     16140     16142     16143     16140     16142     16144
     16140     16142     16145     16143     16142     16144     16143     16142     16145
     16144     16142     16145     16142     16145     16146     16142     16145     16147
     16146     16145     16147     16145     16147     16148     16145     16147     16149
     16148     16147     16149     16147     16149     16150     16147     16149     16151
     16147     16149     16152     16150     16149     16151     16150     16149     16152
     16151     16149     16152     16149     16152     16153     16149     16152     16154
     16149     16152     16155     16153     16152     16154     16153     16152     16155
     16154     16152     16155     16152     16155     16156     16152     16155     16157
     16152     16155     16158     16156     16155     16157     16156     16155     16158
     16157     16155     16158     16155     16158     16159     16155     16158     16160
     16155     16158     16161     16159     16158     16160     16159     16158     16161
     16160     16158     16161     16158     16161     16162     16158     16161     16163
     16158     16161     16164     16162     16161     16163     16162     16161     16164
     16163     16161     16164     16115     16165     16166     16115     16165     16167
     16115     16165     16168     16166     16165     16167     16166     16165     16168
     16167     16165     16168     16165     16168     16169     16165     16168     16170
     16165     16168     16171     16169     16168     16170     16169     16168     16171
     16170     16168     16171     16168     16171     16172     16168     16171     16173
     16168     16171     16174     16172     16171     16173     16172     16171     16174
     16173     16171     16174     16171     16174     16175     16171     16174     16176
     16171     16174     16177     16175     16174     16176     16175     16174     16177
     16176     16174     16177     16174     16177     16178     16174     16177     16179
     16174     16177     16180     16178     16177     16179     16178     16177     16180
     16179     16177     16180     16177     16180     16181     16177     16180     16182
     16177     16180     16183     16181     16180     16182     16181     16180     16183
     16182     16180     16183     16180     16183     16184     16180     16183     16185
     16180     16183     16186     16184     16183     16185     16184     16183     16186
     16185     16183     16186     16183     16186     16187     16183     16186     16188
     16183     16186     16189     16187     16186     16188     16187     16186     16189
     16188     16186     16189     16186     16189     16190     16186     16189     16191
     16186     16189     16192     16190     16189     16191     16190     16189     16192
     16191     16189     16192     16189     16192     16193     16189     16192     16194
     16189     16192     16195     16193     16192     16194     16193     16192     16195
     16194     16192     16195     16192     16195     16196     16192     16195     16197
     16192     16195     16198     16196     16195     16197     16196     16195     16198
     16197     16195     16198     16195     16198     16199     16195     16198     16200
     16195     16198     16201     16199     16198     16200     16199     16198     16201
     16200     16198     16201     16198     16201     16202     16198     16201     16203
     16198     16201     16204     16202     16201     16203     16202     16201     16204
     16203     16201     16204     16201     16204     16205     16201     16204     16206
     16201     16204     16207     16205     16204     16206     16205     16204     16207
     16206     16204     16207     16204     16207     16208     16204     16207     16209
     16204     16207     16210     16208     16207     16209     16208     16207     16210
     16209     16207     16210     16207     16210     16211     16207     16210     16212
     16207     16210     16213     16211     16210     16212     16211     16210     16213
     16212     16210     16213     16215     16214     16216     16215     16214     16217
     16215     16214     16218     16216     16214     16217     16216     16214     16218
     16217     16214     16218     16214     16218     16219     16214     16218     16220
     16214     16218     16221     16219     16218     16220     16219     16218     16221
     16220     16218     16221     16218     16221     16222     16218     16221     16223
     16218     16221     16227     16222     16221     16223     16222     16221     16227
     16223     16221     16227     16225     16224     16226     16225     16224     16227
     16225     16224     16228     16226     16224     16227     16226     16224     16228
     16227     16224     16228     16221     16227     16224     16224     16228     16229
     16228     16229     16230     16228     16229     16231     16228     16229     16232
     16230     16229     16231     16230     16229     16232     16231     16229     16232
     16229     16232     16233     16229     16232     16234     16229     16232     16240
     16233     16232     16234     16233     16232     16240     16234     16232     16240
     16232     16234     16235     16234     16235     16236     16234     16235     16237
     16236     16235     16237     16235     16237     16238     16235     16237     16239
     16235     16237     16249     16238     16237     16239     16238     16237     16249
     16239     16237     16249     16232     16240     16241     16232     16240     16242
     16232     16240     16243     16241     16240     16242     16241     16240     16243
     16242     16240     16243     16240     16243     16244     16243     16244     16245
     16243     16244     16246     16245     16244     16246     16244     16246     16247
     16244     16246     16248     16244     16246     16296     16247     16246     16248
     16247     16246     16296     16248     16246     16296     16237     16249     16250
     16237     16249     16251     16237     16249     16252     16250     16249     16251
     16250     16249     16252     16251     16249     16252     16249     16252     16253
     16249     16252     16254     16249     16252     16255     16253     16252     16254
     16253     16252     16255     16254     16252     16255     16252     16255     16256
     16252     16255     16257     16256     16255     16257     16255     16257     16258
     16255     16257     16259     16258     16257     16259     16257     16259     16260
     16257     16259     16261     16257     16259     16262     16260     16259     16261
     16260     16259     16262     16261     16259     16262     16259     16262     16263
     16259     16262     16264     16263     16262     16264     16262     16264     16265
     16262     16264     16266     16265     16264     16266     16264     16266     16267
     16264     16266     16268     16264     16266     16269     16267     16266     16268
     16267     16266     16269     16268     16266     16269     16266     16269     16270
     16266     16269     16271     16270     16269     16271     16269     16271     16272
     16269     16271     16273     16272     16271     16273     16271     16273     16274
     16271     16273     16275     16271     16273     16276     16274     16273     16275
     16274     16273     16276     16275     16273     16276     16273     16276     16277
     16273     16276     16278     16277     16276     16278     16276     16278     16279
     16276     16278     16280     16279     16278     16280     16278     16280     16281
     16278     16280     16282     16278     16280     16283     16281     16280     16282
     16281     16280     16283     16282     16280     16283     16280     16283     16284
     16280     16283     16285     16280     16283     16286     16284     16283     16285
     16284     16283     16286     16285     16283     16286     16283     16286     16287
     16283     16286     16288     16283     16286     16289     16287     16286     16288
     16287     16286     16289     16288     16286     16289     16286     16289     16290
     16286     16289     16291     16286     16289     16292     16290     16289     16291
     16290     16289     16292     16291     16289     16292     16289     16292     16293
     16289     16292     16294     16289     16292     16295     16293     16292     16294
     16293     16292     16295     16294     16292     16295     16246     16296     16297
     16246     16296     16298     16246     16296     16299     16297     16296     16298
     16297     16296     16299     16298     16296     16299     16296     16299     16300
     16296     16299     16301     16296     16299     16302     16300     16299     16301
     16300     16299     16302     16301     16299     16302     16299     16302     16303
     16299     16302     16304     16299     16302     16305     16303     16302     16304
     16303     16302     16305     16304     16302     16305     16302     16305     16306
     16302     16305     16307     16302     16305     16308     16306     16305     16307
     16306     16305     16308     16307     16305     16308     16305     16308     16309
     16305     16308     16310     16305     16308     16311     16309     16308     16310
     16309     16308     16311     16310     16308     16311     16308     16311     16312
     16308     16311     16313     16308     16311     16314     16312     16311     16313
     16312     16311     16314     16313     16311     16314     16311     16314     16315
     16311     16314     16316     16311     16314     16317     16315     16314     16316
     16315     16314     16317     16316     16314     16317     16314     16317     16318
     16314     16317     16319     16314     16317     16320     16318     16317     16319
     16318     16317     16320     16319     16317     16320     16317     16320     16321
     16317     16320     16322     16317     16320     16323     16321     16320     16322
     16321     16320     16323     16322     16320     16323     16320     16323     16324
     16320     16323     16325     16320     16323     16326     16324     16323     16325
     16324     16323     16326     16325     16323     16326     16323     16326     16327
     16323     16326     16328     16323     16326     16329     16327     16326     16328
     16327     16326     16329     16328     16326     16329     16326     16329     16330
     16326     16329     16331     16326     16329     16332     16330     16329     16331
     16330     16329     16332     16331     16329     16332     16329     16332     16333
     16329     16332     16334     16329     16332     16335     16333     16332     16334
     16333     16332     16335     16334     16332     16335     16332     16335     16336
     16332     16335     16337     16332     16335     16338     16336     16335     16337
     16336     16335     16338     16337     16335     16338     16335     16338     16339
     16335     16338     16340     16335     16338     16341     16339     16338     16340
     16339     16338     16341     16340     16338     16341     16338     16341     16342
     16338     16341     16343     16338     16341     16344     16342     16341     16343
     16342     16341     16344     16343     16341     16344     16346     16345     16347
     16346     16345     16348     16346     16345     16349     16347     16345     16348
     16347     16345     16349     16348     16345     16349     16345     16349     16350
     16345     16349     16351     16345     16349     16352     16350     16349     16351
     16350     16349     16352     16351     16349     16352     16349     16352     16353
     16349     16352     16354     16349     16352     16358     16353     16352     16354
     16353     16352     16358     16354     16352     16358     16356     16355     16357
     16356     16355     16358     16356     16355     16359     16357     16355     16358
     16357     16355     16359     16358     16355     16359     16352     16358     16355
     16355     16359     16360     16359     16360     16361     16359     16360     16362
     16359     16360     16363     16361     16360     16362     16361     16360     16363
     16362     16360     16363     16360     16363     16364     16360     16363     16365
     16360     16363     16371     16364     16363     16365     16364     16363     16371
     16365     16363     16371     16363     16365     16366     16365     16366     16367
     16365     16366     16368     16367     16366     16368     16366     16368     16369
     16366     16368     16370     16366     16368     16380     16369     16368     16370
     16369     16368     16380     16370     16368     16380     16363     16371     16372
     16363     16371     16373     16363     16371     16374     16372     16371     16373
     16372     16371     16374     16373     16371     16374     16371     16374     16375
     16374     16375     16376     16374     16375     16377     16376     16375     16377
     16375     16377     16378     16375     16377     16379     16375     16377     16427
     16378     16377     16379     16378     16377     16427     16379     16377     16427
     16368     16380     16381     16368     16380     16382     16368     16380     16383
     16381     16380     16382     16381     16380     16383     16382     16380     16383
     16380     16383     16384     16380     16383     16385     16380     16383     16386
     16384     16383     16385     16384     16383     16386     16385     16383     16386
     16383     16386     16387     16383     16386     16388     16387     16386     16388
     16386     16388     16389     16386     16388     16390     16389     16388     16390
     16388     16390     16391     16388     16390     16392     16388     16390     16393
     16391     16390     16392     16391     16390     16393     16392     16390     16393
     16390     16393     16394     16390     16393     16395     16394     16393     16395
     16393     16395     16396     16393     16395     16397     16396     16395     16397
     16395     16397     16398     16395     16397     16399     16395     16397     16400
     16398     16397     16399     16398     16397     16400     16399     16397     16400
     16397     16400     16401     16397     16400     16402     16401     16400     16402
     16400     16402     16403     16400     16402     16404     16403     16402     16404
     16402     16404     16405     16402     16404     16406     16402     16404     16407
     16405     16404     16406     16405     16404     16407     16406     16404     16407
     16404     16407     16408     16404     16407     16409     16408     16407     16409
     16407     16409     16410     16407     16409     16411     16410     16409     16411
     16409     16411     16412     16409     16411     16413     16409     16411     16414
     16412     16411     16413     16412     16411     16414     16413     16411     16414
     16411     16414     16415     16411     16414     16416     16411     16414     16417
     16415     16414     16416     16415     16414     16417     16416     16414     16417
     16414     16417     16418     16414     16417     16419     16414     16417     16420
     16418     16417     16419     16418     16417     16420     16419     16417     16420
     16417     16420     16421     16417     16420     16422     16417     16420     16423
     16421     16420     16422     16421     16420     16423     16422     16420     16423
     16420     16423     16424     16420     16423     16425     16420     16423     16426
     16424     16423     16425     16424     16423     16426     16425     16423     16426
     16377     16427     16428     16377     16427     16429     16377     16427     16430
     16428     16427     16429     16428     16427     16430     16429     16427     16430
     16427     16430     16431     16427     16430     16432     16427     16430     16433
     16431     16430     16432     16431     16430     16433     16432     16430     16433
     16430     16433     16434     16430     16433     16435     16430     16433     16436
     16434     16433     16435     16434     16433     16436     16435     16433     16436
     16433     16436     16437     16433     16436     16438     16433     16436     16439
     16437     16436     16438     16437     16436     16439     16438     16436     16439
     16436     16439     16440     16436     16439     16441     16436     16439     16442
     16440     16439     16441     16440     16439     16442     16441     16439     16442
     16439     16442     16443     16439     16442     16444     16439     16442     16445
     16443     16442     16444     16443     16442     16445     16444     16442     16445
     16442     16445     16446     16442     16445     16447     16442     16445     16448
     16446     16445     16447     16446     16445     16448     16447     16445     16448
     16445     16448     16449     16445     16448     16450     16445     16448     16451
     16449     16448     16450     16449     16448     16451     16450     16448     16451
     16448     16451     16452     16448     16451     16453     16448     16451     16454
     16452     16451     16453     16452     16451     16454     16453     16451     16454
     16451     16454     16455     16451     16454     16456     16451     16454     16457
     16455     16454     16456     16455     16454     16457     16456     16454     16457
     16454     16457     16458     16454     16457     16459     16454     16457     16460
     16458     16457     16459     16458     16457     16460     16459     16457     16460
     16457     16460     16461     16457     16460     16462     16457     16460     16463
     16461     16460     16462     16461     16460     16463     16462     16460     16463
     16460     16463     16464     16460     16463     16465     16460     16463     16466
     16464     16463     16465     16464     16463     16466     16465     16463     16466
     16463     16466     16467     16463     16466     16468     16463     16466     16469
     16467     16466     16468     16467     16466     16469     16468     16466     16469
     16466     16469     16470     16466     16469     16471     16466     16469     16472
     16470     16469     16471     16470     16469     16472     16471     16469     16472
     16469     16472     16473     16469     16472     16474     16469     16472     16475
     16473     16472     16474     16473     16472     16475     16474     16472     16475
      3402      3401      3403      3402      3401      3405      3402      3401      3447
      3403      3401      3405      3403      3401      3447      3405      3401      3447
      3401      3403      3404      3401      3405      3406      3401      3405      3407
      3401      3405      3408      3406      3405      3407      3406      3405      3408
      3407      3405      3408      3405      3408      3409      3405      3408      3439
      3409      3408      3439      3408      3409      3410      3408      3409      3411
      3410      3409      3411      3409      3411      3412      3409      3411      3413
      3409      3411      3414      3412      3411      3413      3412      3411      3414
      3413      3411      3414      3411      3414      3415      3411      3414      3416
      3411      3414      3437      3415      3414      3416      3415      3414      3437
      3416      3414      3437      3414      3416      3417      3414      3416      3418
      3414      3416      3426      3417      3416      3418      3417      3416      3426
      3418      3416      3426      3416      3418      3419      3416      3418      3420
      3416      3418      3421      3419      3418      3420      3419      3418      3421
      3420      3418      3421      3418      3421      3422      3418      3421      3423
      3418      3421      3424      3422      3421      3423      3422      3421      3424
      3423      3421      3424      3421      3424      3425      3421      3424      3426
      3421      3424      3450      3425      3424      3426      3425      3424      3450
      3426      3424      3450      3416      3426      3424      3416      3426      3427
      3416      3426      3431      3424      3426      3427      3424      3426      3431
      3427      3426      3431      3426      3427      3428      3426      3427      3429
      3426      3427      3430      3428      3427      3429      3428      3427      3430
      3429      3427      3430      3426      3431      3432      3426      3431      3433
      3426      3431      3434      3432      3431      3433      3432      3431      3434
      3433      3431      3434      3431      3434      3435      3431      3434      3436
      3431      3434      3437      3435      3434      3436      3435      3434      3437
      3436      3434      3437      3414      3437      3434      3414      3437      3438
      3414      3437      3439      3434      3437      3438      3434      3437      3439
      3438      3437      3439      3408      3439      3437      3408      3439      3440
      3408      3439      3444      3437      3439      3440      3437      3439      3444
      3440      3439      3444      3439      3440      3441      3439      3440      3442
      3439      3440      3443      3441      3440      3442      3441      3440      3443
      3442      3440      3443      3439      3444      3445      3439      3444      3446
      3439      3444      3447      3445      3444      3446      3445      3444      3447
      3446      3444      3447      3401      3447      3444      3401      3447      3448
      3401      3447      3449      3444      3447      3448      3444      3447      3449
      3448      3447      3449      3424      3450      3451      3424      3450      3452
      3424      3450      3456      3451      3450      3452      3451      3450      3456
      3452      3450      3456      3450      3452      3453      3450      3452      3454
      3450      3452      3455      3453      3452      3454      3453      3452      3455
      3454      3452      3455      3450      3456      3457      3450      3456      3458
      3450      3456      3459      3457      3456      3458      3457      3456      3459
      3458      3456      3459      3456      3459      3460      3456      3459      3461
      3456      3459      3462      3460      3459      3461      3460      3459      3462
      3461      3459      3462      3459      3462      3463      3459      3462      3464
      3459      3462      3465      3463      3462      3464      3463      3462      3465
      3464      3462      3465      3462      3465      3466      3462      3465      3467
      3462      3465      3471      3466      3465      3467      3466      3465      3471
      3467      3465      3471      3465      3467      3468      3465      3467      3469
      3465      3467      3470      3468      3467      3469      3468      3467      3470
      3469      3467      3470      3465      3471      3472      3465      3471      3473
      3465      3471      3474      3472      3471      3473      3472      3471      3474
      3473      3471      3474     16477     16476     16478     16477     16476     16479
     16477     16476     16480     16478     16476     16479     16478     16476     16480
     16479     16476     16480     16476     16480     16481     16476     16480     16482
     16476     16480     16483     16481     16480     16482     16481     16480     16483
     16482     16480     16483     16480     16483     16484     16480     16483     16485
     16480     16483     16489     16484     16483     16485     16484     16483     16489
     16485     16483     16489     16487     16486     16488     16487     16486     16489
     16487     16486     16490     16488     16486     16489     16488     16486     16490
     16489     16486     16490     16483     16489     16486     16486     16490     16491
     16490     16491     16492     16490     16491     16493     16490     16491     16494
     16492     16491     16493     16492     16491     16494     16493     16491     16494
     16491     16494     16495     16491     16494     16496     16491     16494     16502
     16495     16494     16496     16495     16494     16502     16496     16494     16502
     16494     16496     16497     16496     16497     16498     16496     16497     16499
     16498     16497     16499     16497     16499     16500     16497     16499     16501
     16497     16499     16511     16500     16499     16501     16500     16499     16511
     16501     16499     16511     16494     16502     16503     16494     16502     16504
     16494     16502     16505     16503     16502     16504     16503     16502     16505
     16504     16502     16505     16502     16505     16506     16505     16506     16507
     16505     16506     16508     16507     16506     16508     16506     16508     16509
     16506     16508     16510     16506     16508     16558     16509     16508     16510
     16509     16508     16558     16510     16508     16558     16499     16511     16512
     16499     16511     16513     16499     16511     16514     16512     16511     16513
     16512     16511     16514     16513     16511     16514     16511     16514     16515
     16511     16514     16516     16511     16514     16517     16515     16514     16516
     16515     16514     16517     16516     16514     16517     16514     16517     16518
     16514     16517     16519     16518     16517     16519     16517     16519     16520
     16517     16519     16521     16520     16519     16521     16519     16521     16522
     16519     16521     16523     16519     16521     16524     16522     16521     16523
     16522     16521     16524     16523     16521     16524     16521     16524     16525
     16521     16524     16526     16525     16524     16526     16524     16526     16527
     16524     16526     16528     16527     16526     16528     16526     16528     16529
     16526     16528     16530     16526     16528     16531     16529     16528     16530
     16529     16528     16531     16530     16528     16531     16528     16531     16532
     16528     16531     16533     16532     16531     16533     16531     16533     16534
     16531     16533     16535     16534     16533     16535     16533     16535     16536
     16533     16535     16537     16533     16535     16538     16536     16535     16537
     16536     16535     16538     16537     16535     16538     16535     16538     16539
     16535     16538     16540     16539     16538     16540     16538     16540     16541
     16538     16540     16542     16541     16540     16542     16540     16542     16543
     16540     16542     16544     16540     16542     16545     16543     16542     16544
     16543     16542     16545     16544     16542     16545     16542     16545     16546
     16542     16545     16547     16542     16545     16548     16546     16545     16547
     16546     16545     16548     16547     16545     16548     16545     16548     16549
     16545     16548     16550     16545     16548     16551     16549     16548     16550
     16549     16548     16551     16550     16548     16551     16548     16551     16552
     16548     16551     16553     16548     16551     16554     16552     16551     16553
     16552     16551     16554     16553     16551     16554     16551     16554     16555
     16551     16554     16556     16551     16554     16557     16555     16554     16556
     16555     16554     16557     16556     16554     16557     16508     16558     16559
     16508     16558     16560     16508     16558     16561     16559     16558     16560
     16559     16558     16561     16560     16558     16561     16558     16561     16562
     16558     16561     16563     16558     16561     16564     16562     16561     16563
     16562     16561     16564     16563     16561     16564     16561     16564     16565
     16561     16564     16566     16561     16564     16567     16565     16564     16566
     16565     16564     16567     16566     16564     16567     16564     16567     16568
     16564     16567     16569     16564     16567     16570     16568     16567     16569
     16568     16567     16570     16569     16567     16570     16567     16570     16571
     16567     16570     16572     16567     16570     16573     16571     16570     16572
     16571     16570     16573     16572     16570     16573     16570     16573     16574
     16570     16573     16575     16570     16573     16576     16574     16573     16575
     16574     16573     16576     16575     16573     16576     16573     16576     16577
     16573     16576     16578     16573     16576     16579     16577     16576     16578
     16577     16576     16579     16578     16576     16579     16576     16579     16580
     16576     16579     16581     16576     16579     16582     16580     16579     16581
     16580     16579     16582     16581     16579     16582     16579     16582     16583
     16579     16582     16584     16579     16582     16585     16583     16582     16584
     16583     16582     16585     16584     16582     16585     16582     16585     16586
     16582     16585     16587     16582     16585     16588     16586     16585     16587
     16586     16585     16588     16587     16585     16588     16585     16588     16589
     16585     16588     16590     16585     16588     16591     16589     16588     16590
     16589     16588     16591     16590     16588     16591     16588     16591     16592
     16588     16591     16593     16588     16591     16594     16592     16591     16593
     16592     16591     16594     16593     16591     16594     16591     16594     16595
     16591     16594     16596     16591     16594     16597     16595     16594     16596
     16595     16594     16597     16596     16594     16597     16594     16597     16598
     16594     16597     16599     16594     16597     16600     16598     16597     16599
     16598     16597     16600     16599     16597     16600     16597     16600     16601
     16597     16600     16602     16597     16600     16603     16601     16600     16602
     16601     16600     16603     16602     16600     16603     16600     16603     16604
     16600     16603     16605     16600     16603     16606     16604     16603     16605
     16604     16603     16606     16605     16603     16606     19490     19489     19494
     19490     19489     19498     19490     19489     19502     19494     19489     19498
     19494     19489     19502     19498     19489     19502     19489     19490     19491
     19489     19490     19492     19489     19490     19493     19491     19490     19492
     19491     19490     19493     19492     19490     19493     19489     19494     19495
     19489     19494     19496     19489     19494     19497     19495     19494     19496
     19495     19494     19497     19496     19494     19497     19489     19498     19499
     19489     19498     19500     19489     19498     19501     19499     19498     19500
     19499     19498     19501     19500     19498     19501     19489     19502     19503
     19489     19502     19504     19489     19502     19505     19503     19502     19504
     19503     19502     19505     19504     19502     19505     19502     19505     19506
     19502     19505     19507     19502     19505     19511     19506     19505     19507
     19506     19505     19511     19507     19505     19511     19509     19508     19510
     19509     19508     19511     19509     19508     19512     19510     19508     19511
     19510     19508     19512     19511     19508     19512     19505     19511     19508
     19508     19512     19513     19512     19513     19514     19512     19513     19515
     19512     19513     19516     19514     19513     19515     19514     19513     19516
     19515     19513     19516     19513     19516     19517     19513     19516     19518
     19513     19516     19524     19517     19516     19518     19517     19516     19524
     19518     19516     19524     19516     19518     19519     19518     19519     19520
     19518     19519     19521     19520     19519     19521     19519     19521     19522
     19519     19521     19523     19519     19521     19533     19522     19521     19523
     19522     19521     19533     19523     19521     19533     19516     19524     19525
     19516     19524     19526     19516     19524     19527     19525     19524     19526
     19525     19524     19527     19526     19524     19527     19524     19527     19528
     19527     19528     19529     19527     19528     19530     19529     19528     19530
     19528     19530     19531     19528     19530     19532     19528     19530     19578
     19531     19530     19532     19531     19530     19578     19532     19530     19578
     19521     19533     19534     19521     19533     19535     19521     19533     19536
     19534     19533     19535     19534     19533     19536     19535     19533     19536
     19533     19536     19537     19533     19536     19538     19533     19536     19539
     19537     19536     19538     19537     19536     19539     19538     19536     19539
     19536     19539     19540     19536     19539     19541     19536     19539     19542
     19540     19539     19541     19540     19539     19542     19541     19539     19542
     19539     19542     19543     19539     19542     19544     19539     19542     19545
     19543     19542     19544     19543     19542     19545     19544     19542     19545
     19542     19545     19546     19542     19545     19547     19542     19545     19548
     19546     19545     19547     19546     19545     19548     19547     19545     19548
     19545     19548     19549     19545     19548     19550     19545     19548     19551
     19549     19548     19550     19549     19548     19551     19550     19548     19551
     19548     19551     19552     19548     19551     19553     19552     19551     19553
     19551     19553     19554     19551     19553     19555     19554     19553     19555
     19553     19555     19556     19553     19555     19557     19553     19555     19558
     19556     19555     19557     19556     19555     19558     19557     19555     19558
     19555     19558     19559     19555     19558     19560     19559     19558     19560
     19558     19560     19561     19558     19560     19562     19561     19560     19562
     19560     19562     19563     19560     19562     19564     19560     19562     19565
     19563     19562     19564     19563     19562     19565     19564     19562     19565
     19562     19565     19566     19562     19565     19567     19562     19565     19568
     19566     19565     19567     19566     19565     19568     19567     19565     19568
     19565     19568     19569     19565     19568     19570     19565     19568     19571
     19569     19568     19570     19569     19568     19571     19570     19568     19571
     19568     19571     19572     19568     19571     19573     19568     19571     19574
     19572     19571     19573     19572     19571     19574     19573     19571     19574
     19571     19574     19575     19571     19574     19576     19571     19574     19577
     19575     19574     19576     19575     19574     19577     19576     19574     19577
     19530     19578     19579     19530     19578     19580     19530     19578     19581
     19579     19578     19580     19579     19578     19581     19580     19578     19581
     19578     19581     19582     19578     19581     19583     19578     19581     19584
     19582     19581     19583     19582     19581     19584     19583     19581     19584
     19581     19584     19585     19581     19584     19586     19581     19584     19587
     19585     19584     19586     19585     19584     19587     19586     19584     19587
     19584     19587     19588     19584     19587     19589     19584     19587     19590
     19588     19587     19589     19588     19587     19590     19589     19587     19590
     19587     19590     19591     19587     19590     19592     19587     19590     19593
     19591     19590     19592     19591     19590     19593     19592     19590     19593
     19590     19593     19594     19590     19593     19595     19590     19593     19596
     19594     19593     19595     19594     19593     19596     19595     19593     19596
     19593     19596     19597     19593     19596     19598     19593     19596     19599
     19597     19596     19598     19597     19596     19599     19598     19596     19599
     19596     19599     19600     19596     19599     19601     19596     19599     19602
     19600     19599     19601     19600     19599     19602     19601     19599     19602
     19599     19602     19603     19599     19602     19604     19599     19602     19605
     19603     19602     19604     19603     19602     19605     19604     19602     19605
     19602     19605     19606     19602     19605     19607     19602     19605     19608
     19606     19605     19607     19606     19605     19608     19607     19605     19608
     19605     19608     19609     19605     19608     19610     19605     19608     19611
     19609     19608     19610     19609     19608     19611     19610     19608     19611
     19608     19611     19612     19608     19611     19613     19608     19611     19614
     19612     19611     19613     19612     19611     19614     19613     19611     19614
     19611     19614     19615     19611     19614     19616     19611     19614     19617
     19615     19614     19616     19615     19614     19617     19616     19614     19617
     19614     19617     19618     19614     19617     19619     19614     19617     19620
     19618     19617     19619     19618     19617     19620     19619     19617     19620
     19617     19620     19621     19617     19620     19622     19617     19620     19623
     19621     19620     19622     19621     19620     19623     19622     19620     19623
     19620     19623     19624     19620     19623     19625     19620     19623     19626
     19624     19623     19625     19624     19623     19626     19625     19623     19626
      3476      3475      3477      3476      3475      3479      3476      3475      3521
      3477      3475      3479      3477      3475      3521      3479      3475      3521
      3475      3477      3478      3475      3479      3480      3475      3479      3481
      3475      3479      3482      3480      3479      3481      3480      3479      3482
      3481      3479      3482      3479      3482      3483      3479      3482      3513
      3483      3482      3513      3482      3483      3484      3482      3483      3485
      3484      3483      3485      3483      3485      3486      3483      3485      3487
      3483      3485      3488      3486      3485      3487      3486      3485      3488
      3487      3485      3488      3485      3488      3489      3485      3488      3490
      3485      3488      3511      3489      3488      3490      3489      3488      3511
      3490      3488      3511      3488      3490      3491      3488      3490      3492
      3488      3490      3500      3491      3490      3492      3491      3490      3500
      3492      3490      3500      3490      3492      3493      3490      3492      3494
      3490      3492      3495      3493      3492      3494      3493      3492      3495
      3494      3492      3495      3492      3495      3496      3492      3495      3497
      3492      3495      3498      3496      3495      3497      3496      3495      3498
      3497      3495      3498      3495      3498      3499      3495      3498      3500
      3495      3498      3524      3499      3498      3500      3499      3498      3524
      3500      3498      3524      3490      3500      3498      3490      3500      3501
      3490      3500      3505      3498      3500      3501      3498      3500      3505
      3501      3500      3505      3500      3501      3502      3500      3501      3503
      3500      3501      3504      3502      3501      3503      3502      3501      3504
      3503      3501      3504      3500      3505      3506      3500      3505      3507
      3500      3505      3508      3506      3505      3507      3506      3505      3508
      3507      3505      3508      3505      3508      3509      3505      3508      3510
      3505      3508      3511      3509      3508      3510      3509      3508      3511
      3510      3508      3511      3488      3511      3508      3488      3511      3512
      3488      3511      3513      3508      3511      3512      3508      3511      3513
      3512      3511      3513      3482      3513      3511      3482      3513      3514
      3482      3513      3518      3511      3513      3514      3511      3513      3518
      3514      3513      3518      3513      3514      3515      3513      3514      3516
      3513      3514      3517      3515      3514      3516      3515      3514      3517
      3516      3514      3517      3513      3518      3519      3513      3518      3520
      3513      3518      3521      3519      3518      3520      3519      3518      3521
      3520      3518      3521      3475      3521      3518      3475      3521      3522
      3475      3521      3523      3518      3521      3522      3518      3521      3523
      3522      3521      3523      3498      3524      3525      3498      3524      3526
      3498      3524      3530      3525      3524      3526      3525      3524      3530
      3526      3524      3530      3524      3526      3527      3524      3526      3528
      3524      3526      3529      3527      3526      3528      3527      3526      3529
      3528      3526      3529      3524      3530      3531      3524      3530      3532
      3524      3530      3533      3531      3530      3532      3531      3530      3533
      3532      3530      3533      3530      3533      3534      3530      3533      3535
      3530      3533      3536      3534      3533      3535      3534      3533      3536
      3535      3533      3536      3533      3536      3537      3533      3536      3538
      3533      3536      3539      3537      3536      3538      3537      3536      3539
      3538      3536      3539      3536      3539      3540      3536      3539      3541
      3536      3539      3545      3540      3539      3541      3540      3539      3545
      3541      3539      3545      3539      3541      3542      3539      3541      3543
      3539      3541      3544      3542      3541      3543      3542      3541      3544
      3543      3541      3544      3539      3545      3546      3539      3545      3547
      3539      3545      3548      3546      3545      3547      3546      3545      3548
      3547      3545      3548     16608     16607     16609     16608     16607     16610
     16608     16607     16611     16609     16607     16610     16609     16607     16611
     16610     16607     16611     16607     16611     16612     16607     16611     16613
     16607     16611     16614     16612     16611     16613     16612     16611     16614
     16613     16611     16614     16611     16614     16615     16611     16614     16616
     16611     16614     16620     16615     16614     16616     16615     16614     16620
     16616     16614     16620     16618     16617     16619     16618     16617     16620
     16618     16617     16621     16619     16617     16620     16619     16617     16621
     16620     16617     16621     16614     16620     16617     16617     16621     16622
     16621     16622     16623     16621     16622     16624     16621     16622     16625
     16623     16622     16624     16623     16622     16625     16624     16622     16625
     16622     16625     16626     16622     16625     16627     16622     16625     16633
     16626     16625     16627     16626     16625     16633     16627     16625     16633
     16625     16627     16628     16627     16628     16629     16627     16628     16630
     16629     16628     16630     16628     16630     16631     16628     16630     16632
     16628     16630     16642     16631     16630     16632     16631     16630     16642
     16632     16630     16642     16625     16633     16634     16625     16633     16635
     16625     16633     16636     16634     16633     16635     16634     16633     16636
     16635     16633     16636     16633     16636     16637     16636     16637     16638
     16636     16637     16639     16638     16637     16639     16637     16639     16640
     16637     16639     16641     16637     16639     16689     16640     16639     16641
     16640     16639     16689     16641     16639     16689     16630     16642     16643
     16630     16642     16644     16630     16642     16645     16643     16642     16644
     16643     16642     16645     16644     16642     16645     16642     16645     16646
     16642     16645     16647     16642     16645     16648     16646     16645     16647
     16646     16645     16648     16647     16645     16648     16645     16648     16649
     16645     16648     16650     16649     16648     16650     16648     16650     16651
     16648     16650     16652     16651     16650     16652     16650     16652     16653
     16650     16652     16654     16650     16652     16655     16653     16652     16654
     16653     16652     16655     16654     16652     16655     16652     16655     16656
     16652     16655     16657     16656     16655     16657     16655     16657     16658
     16655     16657     16659     16658     16657     16659     16657     16659     16660
     16657     16659     16661     16657     16659     16662     16660     16659     16661
     16660     16659     16662     16661     16659     16662     16659     16662     16663
     16659     16662     16664     16663     16662     16664     16662     16664     16665
     16662     16664     16666     16665     16664     16666     16664     16666     16667
     16664     16666     16668     16664     16666     16669     16667     16666     16668
     16667     16666     16669     16668     16666     16669     16666     16669     16670
     16666     16669     16671     16670     16669     16671     16669     16671     16672
     16669     16671     16673     16672     16671     16673     16671     16673     16674
     16671     16673     16675     16671     16673     16676     16674     16673     16675
     16674     16673     16676     16675     16673     16676     16673     16676     16677
     16673     16676     16678     16673     16676     16679     16677     16676     16678
     16677     16676     16679     16678     16676     16679     16676     16679     16680
     16676     16679     16681     16676     16679     16682     16680     16679     16681
     16680     16679     16682     16681     16679     16682     16679     16682     16683
     16679     16682     16684     16679     16682     16685     16683     16682     16684
     16683     16682     16685     16684     16682     16685     16682     16685     16686
     16682     16685     16687     16682     16685     16688     16686     16685     16687
     16686     16685     16688     16687     16685     16688     16639     16689     16690
     16639     16689     16691     16639     16689     16692     16690     16689     16691
     16690     16689     16692     16691     16689     16692     16689     16692     16693
     16689     16692     16694     16689     16692     16695     16693     16692     16694
     16693     16692     16695     16694     16692     16695     16692     16695     16696
     16692     16695     16697     16692     16695     16698     16696     16695     16697
     16696     16695     16698     16697     16695     16698     16695     16698     16699
     16695     16698     16700     16695     16698     16701     16699     16698     16700
     16699     16698     16701     16700     16698     16701     16698     16701     16702
     16698     16701     16703     16698     16701     16704     16702     16701     16703
     16702     16701     16704     16703     16701     16704     16701     16704     16705
     16701     16704     16706     16701     16704     16707     16705     16704     16706
     16705     16704     16707     16706     16704     16707     16704     16707     16708
     16704     16707     16709     16704     16707     16710     16708     16707     16709
     16708     16707     16710     16709     16707     16710     16707     16710     16711
     16707     16710     16712     16707     16710     16713     16711     16710     16712
     16711     16710     16713     16712     16710     16713     16710     16713     16714
     16710     16713     16715     16710     16713     16716     16714     16713     16715
     16714     16713     16716     16715     16713     16716     16713     16716     16717
     16713     16716     16718     16713     16716     16719     16717     16716     16718
     16717     16716     16719     16718     16716     16719     16716     16719     16720
     16716     16719     16721     16716     16719     16722     16720     16719     16721
     16720     16719     16722     16721     16719     16722     16719     16722     16723
     16719     16722     16724     16719     16722     16725     16723     16722     16724
     16723     16722     16725     16724     16722     16725     16722     16725     16726
     16722     16725     16727     16722     16725     16728     16726     16725     16727
     16726     16725     16728     16727     16725     16728     16725     16728     16729
     16725     16728     16730     16725     16728     16731     16729     16728     16730
     16729     16728     16731     16730     16728     16731     16728     16731     16732
     16728     16731     16733     16728     16731     16734     16732     16731     16733
     16732     16731     16734     16733     16731     16734     16731     16734     16735
     16731     16734     16736     16731     16734     16737     16735     16734     16736
     16735     16734     16737     16736     16734     16737      3550      3549      3551
      3550      3549      3553      3550      3549      3595      3551      3549      3553
      3551      3549      3595      3553      3549      3595      3549      3551      3552
      3549      3553      3554      3549      3553      3555      3549      3553      3556
      3554      3553      3555      3554      3553      3556      3555      3553      3556
      3553      3556      3557      3553      3556      3587      3557      3556      3587
      3556      3557      3558      3556      3557      3559      3558      3557      3559
      3557      3559      3560      3557      3559      3561      3557      3559      3562
      3560      3559      3561      3560      3559      3562      3561      3559      3562
      3559      3562      3563      3559      3562      3564      3559      3562      3585
      3563      3562      3564      3563      3562      3585      3564      3562      3585
      3562      3564      3565      3562      3564      3566      3562      3564      3574
      3565      3564      3566      3565      3564      3574      3566      3564      3574
      3564      3566      3567      3564      3566      3568      3564      3566      3569
      3567      3566      3568      3567      3566      3569      3568      3566      3569
      3566      3569      3570      3566      3569      3571      3566      3569      3572
      3570      3569      3571      3570      3569      3572      3571      3569      3572
      3569      3572      3573      3569      3572      3574      3569      3572      3598
      3573      3572      3574      3573      3572      3598      3574      3572      3598
      3564      3574      3572      3564      3574      3575      3564      3574      3579
      3572      3574      3575      3572      3574      3579      3575      3574      3579
      3574      3575      3576      3574      3575      3577      3574      3575      3578
      3576      3575      3577      3576      3575      3578      3577      3575      3578
      3574      3579      3580      3574      3579      3581      3574      3579      3582
      3580      3579      3581      3580      3579      3582      3581      3579      3582
      3579      3582      3583      3579      3582      3584      3579      3582      3585
      3583      3582      3584      3583      3582      3585      3584      3582      3585
      3562      3585      3582      3562      3585      3586      3562      3585      3587
      3582      3585      3586      3582      3585      3587      3586      3585      3587
      3556      3587      3585      3556      3587      3588      3556      3587      3592
      3585      3587      3588      3585      3587      3592      3588      3587      3592
      3587      3588      3589      3587      3588      3590      3587      3588      3591
      3589      3588      3590      3589      3588      3591      3590      3588      3591
      3587      3592      3593      3587      3592      3594      3587      3592      3595
      3593      3592      3594      3593      3592      3595      3594      3592      3595
      3549      3595      3592      3549      3595      3596      3549      3595      3597
      3592      3595      3596      3592      3595      3597      3596      3595      3597
      3572      3598      3599      3572      3598      3600      3572      3598      3604
      3599      3598      3600      3599      3598      3604      3600      3598      3604
      3598      3600      3601      3598      3600      3602      3598      3600      3603
      3601      3600      3602      3601      3600      3603      3602      3600      3603
      3598      3604      3605      3598      3604      3606      3598      3604      3607
      3605      3604      3606      3605      3604      3607      3606      3604      3607
      3604      3607      3608      3604      3607      3609      3604      3607      3610
      3608      3607      3609      3608      3607      3610      3609      3607      3610
      3607      3610      3611      3607      3610      3612      3607      3610      3613
      3611      3610      3612      3611      3610      3613      3612      3610      3613
      3610      3613      3614      3610      3613      3615      3610      3613      3619
      3614      3613      3615      3614      3613      3619      3615      3613      3619
      3613      3615      3616      3613      3615      3617      3613      3615      3618
      3616      3615      3617      3616      3615      3618      3617      3615      3618
      3613      3619      3620      3613      3619      3621      3613      3619      3622
      3620      3619      3621      3620      3619      3622      3621      3619      3622
      3624      3623      3625      3624      3623      3627      3624      3623      3669
      3625      3623      3627      3625      3623      3669      3627      3623      3669
      3623      3625      3626      3623      3627      3628      3623      3627      3629
      3623      3627      3630      3628      3627      3629      3628      3627      3630
      3629      3627      3630      3627      3630      3631      3627      3630      3661
      3631      3630      3661      3630      3631      3632      3630      3631      3633
      3632      3631      3633      3631      3633      3634      3631      3633      3635
      3631      3633      3636      3634      3633      3635      3634      3633      3636
      3635      3633      3636      3633      3636      3637      3633      3636      3638
      3633      3636      3659      3637      3636      3638      3637      3636      3659
      3638      3636      3659      3636      3638      3639      3636      3638      3640
      3636      3638      3648      3639      3638      3640      3639      3638      3648
      3640      3638      3648      3638      3640      3641      3638      3640      3642
      3638      3640      3643      3641      3640      3642      3641      3640      3643
      3642      3640      3643      3640      3643      3644      3640      3643      3645
      3640      3643      3646      3644      3643      3645      3644      3643      3646
      3645      3643      3646      3643      3646      3647      3643      3646      3648
      3643      3646      3672      3647      3646      3648      3647      3646      3672
      3648      3646      3672      3638      3648      3646      3638      3648      3649
      3638      3648      3653      3646      3648      3649      3646      3648      3653
      3649      3648      3653      3648      3649      3650      3648      3649      3651
      3648      3649      3652      3650      3649      3651      3650      3649      3652
      3651      3649      3652      3648      3653      3654      3648      3653      3655
      3648      3653      3656      3654      3653      3655      3654      3653      3656
      3655      3653      3656      3653      3656      3657      3653      3656      3658
      3653      3656      3659      3657      3656      3658      3657      3656      3659
      3658      3656      3659      3636      3659      3656      3636      3659      3660
      3636      3659      3661      3656      3659      3660      3656      3659      3661
      3660      3659      3661      3630      3661      3659      3630      3661      3662
      3630      3661      3666      3659      3661      3662      3659      3661      3666
      3662      3661      3666      3661      3662      3663      3661      3662      3664
      3661      3662      3665      3663      3662      3664      3663      3662      3665
      3664      3662      3665      3661      3666      3667      3661      3666      3668
      3661      3666      3669      3667      3666      3668      3667      3666      3669
      3668      3666      3669      3623      3669      3666      3623      3669      3670
      3623      3669      3671      3666      3669      3670      3666      3669      3671
      3670      3669      3671      3646      3672      3673      3646      3672      3674
      3646      3672      3678      3673      3672      3674      3673      3672      3678
      3674      3672      3678      3672      3674      3675      3672      3674      3676
      3672      3674      3677      3675      3674      3676      3675      3674      3677
      3676      3674      3677      3672      3678      3679      3672      3678      3680
      3672      3678      3681      3679      3678      3680      3679      3678      3681
      3680      3678      3681      3678      3681      3682      3678      3681      3683
      3678      3681      3684      3682      3681      3683      3682      3681      3684
      3683      3681      3684      3681      3684      3685      3681      3684      3686
      3681      3684      3687      3685      3684      3686      3685      3684      3687
      3686      3684      3687      3684      3687      3688      3684      3687      3689
      3684      3687      3693      3688      3687      3689      3688      3687      3693
      3689      3687      3693      3687      3689      3690      3687      3689      3691
      3687      3689      3692      3690      3689      3691      3690      3689      3692
      3691      3689      3692      3687      3693      3694      3687      3693      3695
      3687      3693      3696      3694      3693      3695      3694      3693      3696
      3695      3693      3696       534       533       535       534       533       536
       534       533       537       535       533       536       535       533       537
       536       533       537       533       537       538       533       537       539
       533       537       542       538       537       539       538       537       542
       539       537       542       537       539       540       537       539       541
       540       539       541       537       542       543       537       542       544
       537       542       548       543       542       544       543       542       548
       544       542       548       546       545       547       546       545       548
       546       545       549       547       545       548       547       545       549
       548       545       549       542       548       545       545       549       550
       549       550       551       549       550       552       549       550       553
       551       550       552       551       550       553       552       550       553
       550       553       554       550       553       555       550       553       561
       554       553       555       554       553       561       555       553       561
       553       555       556       555       556       557       555       556       558
       557       556       558       556       558       559       556       558       560
       556       558       570       559       558       560       559       558       570
       560       558       570       553       561       562       553       561       563
       553       561       564       562       561       563       562       561       564
       563       561       564       561       564       565       564       565       566
       564       565       567       566       565       567       565       567       568
       565       567       569       565       567       617       568       567       569
       568       567       617       569       567       617       558       570       571
       558       570       572       558       570       573       571       570       572
       571       570       573       572       570       573       570       573       574
       570       573       575       570       573       576       574       573       575
       574       573       576       575       573       576       573       576       577
       573       576       578       577       576       578       576       578       579
       576       578       580       579       578       580       578       580       581
       578       580       582       578       580       583       581       580       582
       581       580       583       582       580       583       580       583       584
       580       583       585       584       583       585       583       585       586
       583       585       587       586       585       587       585       587       588
       585       587       589       585       587       590       588       587       589
       588       587       590       589       587       590       587       590       591
       587       590       592       591       590       592       590       592       593
       590       592       594       593       592       594       592       594       595
       592       594       596       592       594       597       595       594       596
       595       594       597       596       594       597       594       597       598
       594       597       599       598       597       599       597       599       600
       597       599       601       600       599       601       599       601       602
       599       601       603       599       601       604       602       601       603
       602       601       604       603       601       604       601       604       605
       601       604       606       601       604       607       605       604       606
       605       604       607       606       604       607       604       607       608
       604       607       609       604       607       610       608       607       609
       608       607       610       609       607       610       607       610       611
       607       610       612       607       610       613       611       610       612
       611       610       613       612       610       613       610       613       614
       610       613       615       610       613       616       614       613       615
       614       613       616       615       613       616       567       617       618
       567       617       619       567       617       620       618       617       619
       618       617       620       619       617       620       617       620       621
       617       620       622       617       620       623       621       620       622
       621       620       623       622       620       623       620       623       624
       620       623       625       620       623       626       624       623       625
       624       623       626       625       623       626       623       626       627
       623       626       628       623       626       629       627       626       628
       627       626       629       628       626       629       626       629       630
       626       629       631       626       629       632       630       629       631
       630       629       632       631       629       632       629       632       633
       629       632       634       629       632       635       633       632       634
       633       632       635       634       632       635       632       635       636
       632       635       637       632       635       638       636       635       637
       636       635       638       637       635       638       635       638       639
       635       638       640       635       638       641       639       638       640
       639       638       641       640       638       641       638       641       642
       638       641       643       638       641       644       642       641       643
       642       641       644       643       641       644       641       644       645
       641       644       646       641       644       647       645       644       646
       645       644       647       646       644       647       644       647       648
       644       647       649       644       647       650       648       647       649
       648       647       650       649       647       650       647       650       651
       647       650       652       647       650       653       651       650       652
       651       650       653       652       650       653       650       653       654
       650       653       655       650       653       656       654       653       655
       654       653       656       655       653       656       653       656       657
       653       656       658       653       656       659       657       656       658
       657       656       659       658       656       659       656       659       660
       656       659       661       656       659       662       660       659       661
       660       659       662       661       659       662       659       662       663
       659       662       664       659       662       665       663       662       664
       663       662       665       664       662       665     16739     16738     16740
     16739     16738     16741     16739     16738     16742     16740     16738     16741
     16740     16738     16742     16741     16738     16742     16738     16742     16743
     16738     16742     16744     16738     16742     16745     16743     16742     16744
     16743     16742     16745     16744     16742     16745     16742     16745     16746
     16742     16745     16747     16742     16745     16751     16746     16745     16747
     16746     16745     16751     16747     16745     16751     16749     16748     16750
     16749     16748     16751     16749     16748     16752     16750     16748     16751
     16750     16748     16752     16751     16748     16752     16745     16751     16748
     16748     16752     16753     16752     16753     16754     16752     16753     16755
     16752     16753     16756     16754     16753     16755     16754     16753     16756
     16755     16753     16756     16753     16756     16757     16753     16756     16758
     16753     16756     16764     16757     16756     16758     16757     16756     16764
     16758     16756     16764     16756     16758     16759     16758     16759     16760
     16758     16759     16761     16760     16759     16761     16759     16761     16762
     16759     16761     16763     16759     16761     16773     16762     16761     16763
     16762     16761     16773     16763     16761     16773     16756     16764     16765
     16756     16764     16766     16756     16764     16767     16765     16764     16766
     16765     16764     16767     16766     16764     16767     16764     16767     16768
     16767     16768     16769     16767     16768     16770     16769     16768     16770
     16768     16770     16771     16768     16770     16772     16768     16770     16820
     16771     16770     16772     16771     16770     16820     16772     16770     16820
     16761     16773     16774     16761     16773     16775     16761     16773     16776
     16774     16773     16775     16774     16773     16776     16775     16773     16776
     16773     16776     16777     16773     16776     16778     16773     16776     16779
     16777     16776     16778     16777     16776     16779     16778     16776     16779
     16776     16779     16780     16776     16779     16781     16780     16779     16781
     16779     16781     16782     16779     16781     16783     16782     16781     16783
     16781     16783     16784     16781     16783     16785     16781     16783     16786
     16784     16783     16785     16784     16783     16786     16785     16783     16786
     16783     16786     16787     16783     16786     16788     16787     16786     16788
     16786     16788     16789     16786     16788     16790     16789     16788     16790
     16788     16790     16791     16788     16790     16792     16788     16790     16793
     16791     16790     16792     16791     16790     16793     16792     16790     16793
     16790     16793     16794     16790     16793     16795     16794     16793     16795
     16793     16795     16796     16793     16795     16797     16796     16795     16797
     16795     16797     16798     16795     16797     16799     16795     16797     16800
     16798     16797     16799     16798     16797     16800     16799     16797     16800
     16797     16800     16801     16797     16800     16802     16801     16800     16802
     16800     16802     16803     16800     16802     16804     16803     16802     16804
     16802     16804     16805     16802     16804     16806     16802     16804     16807
     16805     16804     16806     16805     16804     16807     16806     16804     16807
     16804     16807     16808     16804     16807     16809     16804     16807     16810
     16808     16807     16809     16808     16807     16810     16809     16807     16810
     16807     16810     16811     16807     16810     16812     16807     16810     16813
     16811     16810     16812     16811     16810     16813     16812     16810     16813
     16810     16813     16814     16810     16813     16815     16810     16813     16816
     16814     16813     16815     16814     16813     16816     16815     16813     16816
     16813     16816     16817     16813     16816     16818     16813     16816     16819
     16817     16816     16818     16817     16816     16819     16818     16816     16819
     16770     16820     16821     16770     16820     16822     16770     16820     16823
     16821     16820     16822     16821     16820     16823     16822     16820     16823
     16820     16823     16824     16820     16823     16825     16820     16823     16826
     16824     16823     16825     16824     16823     16826     16825     16823     16826
     16823     16826     16827     16823     16826     16828     16823     16826     16829
     16827     16826     16828     16827     16826     16829     16828     16826     16829
     16826     16829     16830     16826     16829     16831     16826     16829     16832
     16830     16829     16831     16830     16829     16832     16831     16829     16832
     16829     16832     16833     16829     16832     16834     16829     16832     16835
     16833     16832     16834     16833     16832     16835     16834     16832     16835
     16832     16835     16836     16832     16835     16837     16832     16835     16838
     16836     16835     16837     16836     16835     16838     16837     16835     16838
     16835     16838     16839     16835     16838     16840     16835     16838     16841
     16839     16838     16840     16839     16838     16841     16840     16838     16841
     16838     16841     16842     16838     16841     16843     16838     16841     16844
     16842     16841     16843     16842     16841     16844     16843     16841     16844
     16841     16844     16845     16841     16844     16846     16841     16844     16847
     16845     16844     16846     16845     16844     16847     16846     16844     16847
     16844     16847     16848     16844     16847     16849     16844     16847     16850
     16848     16847     16849     16848     16847     16850     16849     16847     16850
     16847     16850     16851     16847     16850     16852     16847     16850     16853
     16851     16850     16852     16851     16850     16853     16852     16850     16853
     16850     16853     16854     16850     16853     16855     16850     16853     16856
     16854     16853     16855     16854     16853     16856     16855     16853     16856
     16853     16856     16857     16853     16856     16858     16853     16856     16859
     16857     16856     16858     16857     16856     16859     16858     16856     16859
     16856     16859     16860     16856     16859     16861     16856     16859     16862
     16860     16859     16861     16860     16859     16862     16861     16859     16862
     16859     16862     16863     16859     16862     16864     16859     16862     16865
     16863     16862     16864     16863     16862     16865     16864     16862     16865
     16862     16865     16866     16862     16865     16867     16862     16865     16868
     16866     16865     16867     16866     16865     16868     16867     16865     16868
     21146     21145     21149     21146     21145     21153     21146     21145     21157
     21149     21145     21153     21149     21145     21157     21153     21145     21157
     21145     21146     21147     21145     21146     21148     21145     21146     21161
     21147     21146     21148     21147     21146     21161     21148     21146     21161
     21145     21149     21150     21145     21149     21151     21145     21149     21152
     21150     21149     21151     21150     21149     21152     21151     21149     21152
     21145     21153     21154     21145     21153     21155     21145     21153     21156
     21154     21153     21155     21154     21153     21156     21155     21153     21156
     21145     21157     21158     21145     21157     21159     21145     21157     21160
     21158     21157     21159     21158     21157     21160     21159     21157     21160
     21146     21161     21162     21146     21161     21163     21146     21161     21167
     21162     21161     21163     21162     21161     21167     21163     21161     21167
     21165     21164     21166     21165     21164     21167     21165     21164     21168
     21166     21164     21167     21166     21164     21168     21167     21164     21168
     21161     21167     21164     21164     21168     21169     21168     21169     21170
     21168     21169     21171     21168     21169     21172     21170     21169     21171
     21170     21169     21172     21171     21169     21172     21169     21172     21173
     21169     21172     21174     21169     21172     21180     21173     21172     21174
     21173     21172     21180     21174     21172     21180     21172     21174     21175
     21174     21175     21176     21174     21175     21177     21176     21175     21177
     21175     21177     21178     21175     21177     21179     21175     21177     21189
     21178     21177     21179     21178     21177     21189     21179     21177     21189
     21172     21180     21181     21172     21180     21182     21172     21180     21183
     21181     21180     21182     21181     21180     21183     21182     21180     21183
     21180     21183     21184     21183     21184     21185     21183     21184     21186
     21185     21184     21186     21184     21186     21187     21184     21186     21188
     21184     21186     21236     21187     21186     21188     21187     21186     21236
     21188     21186     21236     21177     21189     21190     21177     21189     21191
     21177     21189     21192     21190     21189     21191     21190     21189     21192
     21191     21189     21192     21189     21192     21193     21189     21192     21194
     21189     21192     21195     21193     21192     21194     21193     21192     21195
     21194     21192     21195     21192     21195     21196     21192     21195     21197
     21192     21195     21198     21196     21195     21197     21196     21195     21198
     21197     21195     21198     21195     21198     21199     21195     21198     21200
     21195     21198     21201     21199     21198     21200     21199     21198     21201
     21200     21198     21201     21198     21201     21202     21198     21201     21203
     21198     21201     21204     21202     21201     21203     21202     21201     21204
     21203     21201     21204     21201     21204     21205     21201     21204     21206
     21201     21204     21207     21205     21204     21206     21205     21204     21207
     21206     21204     21207     21204     21207     21208     21204     21207     21209
     21208     21207     21209     21207     21209     21210     21207     21209     21211
     21210     21209     21211     21209     21211     21212     21209     21211     21213
     21209     21211     21214     21212     21211     21213     21212     21211     21214
     21213     21211     21214     21211     21214     21215     21211     21214     21216
     21211     21214     21217     21215     21214     21216     21215     21214     21217
     21216     21214     21217     21214     21217     21218     21214     21217     21219
     21214     21217     21220     21218     21217     21219     21218     21217     21220
     21219     21217     21220     21217     21220     21221     21217     21220     21222
     21217     21220     21223     21221     21220     21222     21221     21220     21223
     21222     21220     21223     21220     21223     21224     21220     21223     21225
     21220     21223     21226     21224     21223     21225     21224     21223     21226
     21225     21223     21226     21223     21226     21227     21223     21226     21228
     21223     21226     21229     21227     21226     21228     21227     21226     21229
     21228     21226     21229     21226     21229     21230     21226     21229     21231
     21226     21229     21232     21230     21229     21231     21230     21229     21232
     21231     21229     21232     21229     21232     21233     21229     21232     21234
     21229     21232     21235     21233     21232     21234     21233     21232     21235
     21234     21232     21235     21186     21236     21237     21186     21236     21238
     21186     21236     21239     21237     21236     21238     21237     21236     21239
     21238     21236     21239     21236     21239     21240     21236     21239     21241
     21236     21239     21242     21240     21239     21241     21240     21239     21242
     21241     21239     21242     21239     21242     21243     21239     21242     21244
     21239     21242     21245     21243     21242     21244     21243     21242     21245
     21244     21242     21245     21242     21245     21246     21242     21245     21247
     21242     21245     21248     21246     21245     21247     21246     21245     21248
     21247     21245     21248     21245     21248     21249     21245     21248     21250
     21245     21248     21251     21249     21248     21250     21249     21248     21251
     21250     21248     21251     21248     21251     21252     21248     21251     21253
     21248     21251     21254     21252     21251     21253     21252     21251     21254
     21253     21251     21254     21251     21254     21255     21251     21254     21256
     21251     21254     21257     21255     21254     21256     21255     21254     21257
     21256     21254     21257     21254     21257     21258     21254     21257     21259
     21254     21257     21260     21258     21257     21259     21258     21257     21260
     21259     21257     21260     21257     21260     21261     21257     21260     21262
     21257     21260     21263     21261     21260     21262     21261     21260     21263
     21262     21260     21263     21260     21263     21264     21260     21263     21265
     21260     21263     21266     21264     21263     21265     21264     21263     21266
     21265     21263     21266     21263     21266     21267     21263     21266     21268
     21263     21266     21269     21267     21266     21268     21267     21266     21269
     21268     21266     21269     21266     21269     21270     21266     21269     21271
     21266     21269     21272     21270     21269     21271     21270     21269     21272
     21271     21269     21272     21269     21272     21273     21269     21272     21274
     21269     21272     21275     21273     21272     21274     21273     21272     21275
     21274     21272     21275     21272     21275     21276     21272     21275     21277
     21272     21275     21278     21276     21275     21277     21276     21275     21278
     21277     21275     21278      3698      3697      3699      3698      3697      3701
      3698      3697      3743      3699      3697      3701      3699      3697      3743
      3701      3697      3743      3697      3699      3700      3697      3701      3702
      3697      3701      3703      3697      3701      3704      3702      3701      3703
      3702      3701      3704      3703      3701      3704      3701      3704      3705
      3701      3704      3735      3705      3704      3735      3704      3705      3706
      3704      3705      3707      3706      3705      3707      3705      3707      3708
      3705      3707      3709      3705      3707      3710      3708      3707      3709
      3708      3707      3710      3709      3707      3710      3707      3710      3711
      3707      3710      3712      3707      3710      3733      3711      3710      3712
      3711      3710      3733      3712      3710      3733      3710      3712      3713
      3710      3712      3714      3710      3712      3722      3713      3712      3714
      3713      3712      3722      3714      3712      3722      3712      3714      3715
      3712      3714      3716      3712      3714      3717      3715      3714      3716
      3715      3714      3717      3716      3714      3717      3714      3717      3718
      3714      3717      3719      3714      3717      3720      3718      3717      3719
      3718      3717      3720      3719      3717      3720      3717      3720      3721
      3717      3720      3722      3717      3720      3746      3721      3720      3722
      3721      3720      3746      3722      3720      3746      3712      3722      3720
      3712      3722      3723      3712      3722      3727      3720      3722      3723
      3720      3722      3727      3723      3722      3727      3722      3723      3724
      3722      3723      3725      3722      3723      3726      3724      3723      3725
      3724      3723      3726      3725      3723      3726      3722      3727      3728
      3722      3727      3729      3722      3727      3730      3728      3727      3729
      3728      3727      3730      3729      3727      3730      3727      3730      3731
      3727      3730      3732      3727      3730      3733      3731      3730      3732
      3731      3730      3733      3732      3730      3733      3710      3733      3730
      3710      3733      3734      3710      3733      3735      3730      3733      3734
      3730      3733      3735      3734      3733      3735      3704      3735      3733
      3704      3735      3736      3704      3735      3740      3733      3735      3736
      3733      3735      3740      3736      3735      3740      3735      3736      3737
      3735      3736      3738      3735      3736      3739      3737      3736      3738
      3737      3736      3739      3738      3736      3739      3735      3740      3741
      3735      3740      3742      3735      3740      3743      3741      3740      3742
      3741      3740      3743      3742      3740      3743      3697      3743      3740
      3697      3743      3744      3697      3743      3745      3740      3743      3744
      3740      3743      3745      3744      3743      3745      3720      3746      3747
      3720      3746      3748      3720      3746      3752      3747      3746      3748
      3747      3746      3752      3748      3746      3752      3746      3748      3749
      3746      3748      3750      3746      3748      3751      3749      3748      3750
      3749      3748      3751      3750      3748      3751      3746      3752      3753
      3746      3752      3754      3746      3752      3755      3753      3752      3754
      3753      3752      3755      3754      3752      3755      3752      3755      3756
      3752      3755      3757      3752      3755      3758      3756      3755      3757
      3756      3755      3758      3757      3755      3758      3755      3758      3759
      3755      3758      3760      3755      3758      3761      3759      3758      3760
      3759      3758      3761      3760      3758      3761      3758      3761      3762
      3758      3761      3763      3758      3761      3767      3762      3761      3763
      3762      3761      3767      3763      3761      3767      3761      3763      3764
      3761      3763      3765      3761      3763      3766      3764      3763      3765
      3764      3763      3766      3765      3763      3766      3761      3767      3768
      3761      3767      3769      3761      3767      3770      3768      3767      3769
      3768      3767      3770      3769      3767      3770     10713     10712     10717
     10713     10712     10721     10713     10712     10725     10717     10712     10721
     10717     10712     10725     10721     10712     10725     10712     10713     10714
     10712     10713     10715     10712     10713     10716     10714     10713     10715
     10714     10713     10716     10715     10713     10716     10712     10717     10718
     10712     10717     10719     10712     10717     10720     10718     10717     10719
     10718     10717     10720     10719     10717     10720     10712     10721     10722
     10712     10721     10723     10712     10721     10724     10722     10721     10723
     10722     10721     10724     10723     10721     10724     10712     10725     10726
     10712     10725     10727     10712     10725     10728     10726     10725     10727
     10726     10725     10728     10727     10725     10728     10725     10728     10729
     10725     10728     10730     10725     10728     10735     10729     10728     10730
     10729     10728     10735     10730     10728     10735     10732     10731     10733
     10732     10731     10734     10732     10731     10735     10733     10731     10734
     10733     10731     10735     10734     10731     10735     10731     10734     10736
     10728     10735     10731     10734     10736     10737     10734     10736     10738
     10734     10736     10741     10737     10736     10738     10737     10736     10741
     10738     10736     10741     10740     10739     10741     10740     10739     10791
     10741     10739     10791     10736     10741     10739     10736     10741     10742
     10736     10741     10743     10739     10741     10742     10739     10741     10743
     10742     10741     10743     10741     10743     10744     10741     10743     10745
     10741     10743     10747     10744     10743     10745     10744     10743     10747
     10745     10743     10747     10743     10745     10746     10743     10747     10748
     10743     10747     10749     10748     10747     10749     10747     10749     10750
     10747     10749     10751     10750     10749     10751     10749     10751     10752
     10749     10751     10753     10749     10751     10754     10752     10751     10753
     10752     10751     10754     10753     10751     10754     10751     10754     10755
     10751     10754     10756     10751     10754     10757     10755     10754     10756
     10755     10754     10757     10756     10754     10757     10754     10757     10758
     10754     10757     10759     10754     10757     10760     10758     10757     10759
     10758     10757     10760     10759     10757     10760     10757     10760     10761
     10757     10760     10762     10757     10760     10763     10761     10760     10762
     10761     10760     10763     10762     10760     10763     10760     10763     10764
     10760     10763     10765     10760     10763     10766     10764     10763     10765
     10764     10763     10766     10765     10763     10766     10763     10766     10767
     10763     10766     10768     10763     10766     10769     10767     10766     10768
     10767     10766     10769     10768     10766     10769     10766     10769     10770
     10766     10769     10771     10766     10769     10772     10770     10769     10771
     10770     10769     10772     10771     10769     10772     10769     10772     10773
     10769     10772     10774     10769     10772     10775     10773     10772     10774
     10773     10772     10775     10774     10772     10775     10772     10775     10776
     10772     10775     10777     10772     10775     10778     10776     10775     10777
     10776     10775     10778     10777     10775     10778     10775     10778     10779
     10775     10778     10780     10775     10778     10781     10779     10778     10780
     10779     10778     10781     10780     10778     10781     10778     10781     10782
     10778     10781     10783     10778     10781     10784     10782     10781     10783
     10782     10781     10784     10783     10781     10784     10781     10784     10785
     10781     10784     10786     10781     10784     10787     10785     10784     10786
     10785     10784     10787     10786     10784     10787     10784     10787     10788
     10784     10787     10789     10784     10787     10790     10788     10787     10789
     10788     10787     10790     10789     10787     10790     10739     10791     10792
     10739     10791     10793     10792     10791     10793     10791     10793     10794
     10791     10793     10795     10791     10793     10796     10794     10793     10795
     10794     10793     10796     10795     10793     10796     10793     10796     10797
     10793     10796     10798     10793     10796     10799     10797     10796     10798
     10797     10796     10799     10798     10796     10799     10796     10799     10800
     10796     10799     10801     10796     10799     10802     10800     10799     10801
     10800     10799     10802     10801     10799     10802     10799     10802     10803
     10799     10802     10804     10799     10802     10805     10803     10802     10804
     10803     10802     10805     10804     10802     10805     10802     10805     10806
     10802     10805     10807     10802     10805     10808     10806     10805     10807
     10806     10805     10808     10807     10805     10808     10805     10808     10809
     10805     10808     10810     10805     10808     10811     10809     10808     10810
     10809     10808     10811     10810     10808     10811     10808     10811     10812
     10808     10811     10813     10808     10811     10814     10812     10811     10813
     10812     10811     10814     10813     10811     10814     10811     10814     10815
     10811     10814     10816     10815     10814     10816     10814     10816     10817
     10814     10816     10818     10817     10816     10818     10816     10818     10819
     10816     10818     10820     10816     10818     10821     10819     10818     10820
     10819     10818     10821     10820     10818     10821     10818     10821     10822
     10818     10821     10823     10818     10821     10824     10822     10821     10823
     10822     10821     10824     10823     10821     10824     10821     10824     10825
     10821     10824     10826     10821     10824     10827     10825     10824     10826
     10825     10824     10827     10826     10824     10827     10824     10827     10828
     10824     10827     10829     10824     10827     10830     10828     10827     10829
     10828     10827     10830     10829     10827     10830     10827     10830     10831
     10827     10830     10832     10827     10830     10833     10831     10830     10832
     10831     10830     10833     10832     10830     10833     10830     10833     10834
     10830     10833     10835     10830     10833     10836     10834     10833     10835
     10834     10833     10836     10835     10833     10836     10833     10836     10837
     10833     10836     10838     10833     10836     10839     10837     10836     10838
     10837     10836     10839     10838     10836     10839     10836     10839     10840
     10836     10839     10841     10836     10839     10842     10840     10839     10841
     10840     10839     10842     10841     10839     10842     10844     10843     10848
     10844     10843     10852     10844     10843     10856     10848     10843     10852
     10848     10843     10856     10852     10843     10856     10843     10844     10845
     10843     10844     10846     10843     10844     10847     10845     10844     10846
     10845     10844     10847     10846     10844     10847     10843     10848     10849
     10843     10848     10850     10843     10848     10851     10849     10848     10850
     10849     10848     10851     10850     10848     10851     10843     10852     10853
     10843     10852     10854     10843     10852     10855     10853     10852     10854
     10853     10852     10855     10854     10852     10855     10843     10856     10857
     10843     10856     10858     10843     10856     10859     10857     10856     10858
     10857     10856     10859     10858     10856     10859     10856     10859     10860
     10856     10859     10861     10856     10859     10866     10860     10859     10861
     10860     10859     10866     10861     10859     10866     10863     10862     10864
     10863     10862     10865     10863     10862     10866     10864     10862     10865
     10864     10862     10866     10865     10862     10866     10862     10865     10867
     10859     10866     10862     10865     10867     10868     10865     10867     10869
     10865     10867     10872     10868     10867     10869     10868     10867     10872
     10869     10867     10872     10871     10870     10872     10871     10870     10922
     10872     10870     10922     10867     10872     10870     10867     10872     10873
     10867     10872     10874     10870     10872     10873     10870     10872     10874
     10873     10872     10874     10872     10874     10875     10872     10874     10876
     10872     10874     10878     10875     10874     10876     10875     10874     10878
     10876     10874     10878     10874     10876     10877     10874     10878     10879
     10874     10878     10880     10879     10878     10880     10878     10880     10881
     10878     10880     10882     10881     10880     10882     10880     10882     10883
     10880     10882     10884     10880     10882     10885     10883     10882     10884
     10883     10882     10885     10884     10882     10885     10882     10885     10886
     10882     10885     10887     10882     10885     10888     10886     10885     10887
     10886     10885     10888     10887     10885     10888     10885     10888     10889
     10885     10888     10890     10885     10888     10891     10889     10888     10890
     10889     10888     10891     10890     10888     10891     10888     10891     10892
     10888     10891     10893     10888     10891     10894     10892     10891     10893
     10892     10891     10894     10893     10891     10894     10891     10894     10895
     10891     10894     10896     10891     10894     10897     10895     10894     10896
     10895     10894     10897     10896     10894     10897     10894     10897     10898
     10894     10897     10899     10894     10897     10900     10898     10897     10899
     10898     10897     10900     10899     10897     10900     10897     10900     10901
     10897     10900     10902     10897     10900     10903     10901     10900     10902
     10901     10900     10903     10902     10900     10903     10900     10903     10904
     10900     10903     10905     10900     10903     10906     10904     10903     10905
     10904     10903     10906     10905     10903     10906     10903     10906     10907
     10903     10906     10908     10903     10906     10909     10907     10906     10908
     10907     10906     10909     10908     10906     10909     10906     10909     10910
     10906     10909     10911     10906     10909     10912     10910     10909     10911
     10910     10909     10912     10911     10909     10912     10909     10912     10913
     10909     10912     10914     10909     10912     10915     10913     10912     10914
     10913     10912     10915     10914     10912     10915     10912     10915     10916
     10912     10915     10917     10912     10915     10918     10916     10915     10917
     10916     10915     10918     10917     10915     10918     10915     10918     10919
     10915     10918     10920     10915     10918     10921     10919     10918     10920
     10919     10918     10921     10920     10918     10921     10870     10922     10923
     10870     10922     10924     10923     10922     10924     10922     10924     10925
     10922     10924     10926     10922     10924     10927     10925     10924     10926
     10925     10924     10927     10926     10924     10927     10924     10927     10928
     10924     10927     10929     10924     10927     10930     10928     10927     10929
     10928     10927     10930     10929     10927     10930     10927     10930     10931
     10927     10930     10932     10927     10930     10933     10931     10930     10932
     10931     10930     10933     10932     10930     10933     10930     10933     10934
     10930     10933     10935     10930     10933     10936     10934     10933     10935
     10934     10933     10936     10935     10933     10936     10933     10936     10937
     10933     10936     10938     10933     10936     10939     10937     10936     10938
     10937     10936     10939     10938     10936     10939     10936     10939     10940
     10936     10939     10941     10936     10939     10942     10940     10939     10941
     10940     10939     10942     10941     10939     10942     10939     10942     10943
     10939     10942     10944     10939     10942     10945     10943     10942     10944
     10943     10942     10945     10944     10942     10945     10942     10945     10946
     10942     10945     10947     10946     10945     10947     10945     10947     10948
     10945     10947     10949     10948     10947     10949     10947     10949     10950
     10947     10949     10951     10947     10949     10952     10950     10949     10951
     10950     10949     10952     10951     10949     10952     10949     10952     10953
     10949     10952     10954     10949     10952     10955     10953     10952     10954
     10953     10952     10955     10954     10952     10955     10952     10955     10956
     10952     10955     10957     10952     10955     10958     10956     10955     10957
     10956     10955     10958     10957     10955     10958     10955     10958     10959
     10955     10958     10960     10955     10958     10961     10959     10958     10960
     10959     10958     10961     10960     10958     10961     10958     10961     10962
     10958     10961     10963     10958     10961     10964     10962     10961     10963
     10962     10961     10964     10963     10961     10964     10961     10964     10965
     10961     10964     10966     10961     10964     10967     10965     10964     10966
     10965     10964     10967     10966     10964     10967     10964     10967     10968
     10964     10967     10969     10964     10967     10970     10968     10967     10969
     10968     10967     10970     10969     10967     10970     10967     10970     10971
     10967     10970     10972     10967     10970     10973     10971     10970     10972
     10971     10970     10973     10972     10970     10973       667       666       668
       667       666       669       667       666       670       668       666       669
       668       666       670       669       666       670       666       670       671
       666       670       672       666       670       675       671       670       672
       671       670       675       672       670       675       670       672       673
       670       672       674       673       672       674       670       675       676
       670       675       677       670       675       681       676       675       677
       676       675       681       677       675       681       679       678       680
       679       678       681       679       678       682       680       678       681
       680       678       682       681       678       682       675       681       678
       678       682       683       682       683       684       682       683       685
       682       683       686       684       683       685       684       683       686
       685       683       686       683       686       687       683       686       688
       683       686       694       687       686       688       687       686       694
       688       686       694       686       688       689       688       689       690
       688       689       691       690       689       691       689       691       692
       689       691       693       689       691       703       692       691       693
       692       691       703       693       691       703       686       694       695
       686       694       696       686       694       697       695       694       696
       695       694       697       696       694       697       694       697       698
       697       698       699       697       698       700       699       698       700
       698       700       701       698       700       702       698       700       750
       701       700       702       701       700       750       702       700       750
       691       703       704       691       703       705       691       703       706
       704       703       705       704       703       706       705       703       706
       703       706       707       703       706       708       703       706       709
       707       706       708       707       706       709       708       706       709
       706       709       710       706       709       711       710       709       711
       709       711       712       709       711       713       712       711       713
       711       713       714       711       713       715       711       713       716
       714       713       715       714       713       716       715       713       716
       713       716       717       713       716       718       717       716       718
       716       718       719       716       718       720       719       718       720
       718       720       721       718       720       722       718       720       723
       721       720       722       721       720       723       722       720       723
       720       723       724       720       723       725       724       723       725
       723       725       726       723       725       727       726       725       727
       725       727       728       725       727       729       725       727       730
       728       727       729       728       727       730       729       727       730
       727       730       731       727       730       732       731       730       732
       730       732       733       730       732       734       733       732       734
       732       734       735       732       734       736       732       734       737
       735       734       736       735       734       737       736       734       737
       734       737       738       734       737       739       734       737       740
       738       737       739       738       737       740       739       737       740
       737       740       741       737       740       742       737       740       743
       741       740       742       741       740       743       742       740       743
       740       743       744       740       743       745       740       743       746
       744       743       745       744       743       746       745       743       746
       743       746       747       743       746       748       743       746       749
       747       746       748       747       746       749       748       746       749
       700       750       751       700       750       752       700       750       753
       751       750       752       751       750       753       752       750       753
       750       753       754       750       753       755       750       753       756
       754       753       755       754       753       756       755       753       756
       753       756       757       753       756       758       753       756       759
       757       756       758       757       756       759       758       756       759
       756       759       760       756       759       761       756       759       762
       760       759       761       760       759       762       761       759       762
       759       762       763       759       762       764       759       762       765
       763       762       764       763       762       765       764       762       765
       762       765       766       762       765       767       762       765       768
       766       765       767       766       765       768       767       765       768
       765       768       769       765       768       770       765       768       771
       769       768       770       769       768       771       770       768       771
       768       771       772       768       771       773       768       771       774
       772       771       773       772       771       774       773       771       774
       771       774       775       771       774       776       771       774       777
       775       774       776       775       774       777       776       774       777
       774       777       778       774       777       779       774       777       780
       778       777       779       778       777       780       779       777       780
       777       780       781       777       780       782       777       780       783
       781       780       782       781       780       783       782       780       783
       780       783       784       780       783       785       780       783       786
       784       783       785       784       783       786       785       783       786
       783       786       787       783       786       788       783       786       789
       787       786       788       787       786       789       788       786       789
       786       789       790       786       789       791       786       789       792
       790       789       791       790       789       792       791       789       792
       789       792       793       789       792       794       789       792       795
       793       792       794       793       792       795       794       792       795
       792       795       796       792       795       797       792       795       798
       796       795       797       796       795       798       797       795       798
     10975     10974     10979     10975     10974     10983     10975     10974     10987
     10979     10974     10983     10979     10974     10987     10983     10974     10987
     10974     10975     10976     10974     10975     10977     10974     10975     10978
     10976     10975     10977     10976     10975     10978     10977     10975     10978
     10974     10979     10980     10974     10979     10981     10974     10979     10982
     10980     10979     10981     10980     10979     10982     10981     10979     10982
     10974     10983     10984     10974     10983     10985     10974     10983     10986
     10984     10983     10985     10984     10983     10986     10985     10983     10986
     10974     10987     10988     10974     10987     10989     10974     10987     10990
     10988     10987     10989     10988     10987     10990     10989     10987     10990
     10987     10990     10991     10987     10990     10992     10987     10990     10997
     10991     10990     10992     10991     10990     10997     10992     10990     10997
     10994     10993     10995     10994     10993     10996     10994     10993     10997
     10995     10993     10996     10995     10993     10997     10996     10993     10997
     10993     10996     10998     10990     10997     10993     10996     10998     10999
     10996     10998     11000     10996     10998     11003     10999     10998     11000
     10999     10998     11003     11000     10998     11003     11002     11001     11003
     11002     11001     11053     11003     11001     11053     10998     11003     11001
     10998     11003     11004     10998     11003     11005     11001     11003     11004
     11001     11003     11005     11004     11003     11005     11003     11005     11006
     11003     11005     11007     11003     11005     11009     11006     11005     11007
     11006     11005     11009     11007     11005     11009     11005     11007     11008
     11005     11009     11010     11005     11009     11011     11010     11009     11011
     11009     11011     11012     11009     11011     11013     11012     11011     11013
     11011     11013     11014     11011     11013     11015     11011     11013     11016
     11014     11013     11015     11014     11013     11016     11015     11013     11016
     11013     11016     11017     11013     11016     11018     11013     11016     11019
     11017     11016     11018     11017     11016     11019     11018     11016     11019
     11016     11019     11020     11016     11019     11021     11016     11019     11022
     11020     11019     11021     11020     11019     11022     11021     11019     11022
     11019     11022     11023     11019     11022     11024     11019     11022     11025
     11023     11022     11024     11023     11022     11025     11024     11022     11025
     11022     11025     11026     11022     11025     11027     11022     11025     11028
     11026     11025     11027     11026     11025     11028     11027     11025     11028
     11025     11028     11029     11025     11028     11030     11025     11028     11031
     11029     11028     11030     11029     11028     11031     11030     11028     11031
     11028     11031     11032     11028     11031     11033     11028     11031     11034
     11032     11031     11033     11032     11031     11034     11033     11031     11034
     11031     11034     11035     11031     11034     11036     11031     11034     11037
     11035     11034     11036     11035     11034     11037     11036     11034     11037
     11034     11037     11038     11034     11037     11039     11034     11037     11040
     11038     11037     11039     11038     11037     11040     11039     11037     11040
     11037     11040     11041     11037     11040     11042     11037     11040     11043
     11041     11040     11042     11041     11040     11043     11042     11040     11043
     11040     11043     11044     11040     11043     11045     11040     11043     11046
     11044     11043     11045     11044     11043     11046     11045     11043     11046
     11043     11046     11047     11043     11046     11048     11043     11046     11049
     11047     11046     11048     11047     11046     11049     11048     11046     11049
     11046     11049     11050     11046     11049     11051     11046     11049     11052
     11050     11049     11051     11050     11049     11052     11051     11049     11052
     11001     11053     11054     11001     11053     11055     11054     11053     11055
     11053     11055     11056     11053     11055     11057     11053     11055     11058
     11056     11055     11057     11056     11055     11058     11057     11055     11058
     11055     11058     11059     11055     11058     11060     11055     11058     11061
     11059     11058     11060     11059     11058     11061     11060     11058     11061
     11058     11061     11062     11058     11061     11063     11058     11061     11064
     11062     11061     11063     11062     11061     11064     11063     11061     11064
     11061     11064     11065     11061     11064     11066     11061     11064     11067
     11065     11064     11066     11065     11064     11067     11066     11064     11067
     11064     11067     11068     11064     11067     11069     11064     11067     11070
     11068     11067     11069     11068     11067     11070     11069     11067     11070
     11067     11070     11071     11067     11070     11072     11067     11070     11073
     11071     11070     11072     11071     11070     11073     11072     11070     11073
     11070     11073     11074     11070     11073     11075     11070     11073     11076
     11074     11073     11075     11074     11073     11076     11075     11073     11076
     11073     11076     11077     11073     11076     11078     11077     11076     11078
     11076     11078     11079     11076     11078     11080     11079     11078     11080
     11078     11080     11081     11078     11080     11082     11078     11080     11083
     11081     11080     11082     11081     11080     11083     11082     11080     11083
     11080     11083     11084     11080     11083     11085     11080     11083     11086
     11084     11083     11085     11084     11083     11086     11085     11083     11086
     11083     11086     11087     11083     11086     11088     11083     11086     11089
     11087     11086     11088     11087     11086     11089     11088     11086     11089
     11086     11089     11090     11086     11089     11091     11086     11089     11092
     11090     11089     11091     11090     11089     11092     11091     11089     11092
     11089     11092     11093     11089     11092     11094     11089     11092     11095
     11093     11092     11094     11093     11092     11095     11094     11092     11095
     11092     11095     11096     11092     11095     11097     11092     11095     11098
     11096     11095     11097     11096     11095     11098     11097     11095     11098
     11095     11098     11099     11095     11098     11100     11095     11098     11101
     11099     11098     11100     11099     11098     11101     11100     11098     11101
     11098     11101     11102     11098     11101     11103     11098     11101     11104
     11102     11101     11103     11102     11101     11104     11103     11101     11104
     19628     19627     19632     19628     19627     19636     19628     19627     19640
     19632     19627     19636     19632     19627     19640     19636     19627     19640
     19627     19628     19629     19627     19628     19630     19627     19628     19631
     19629     19628     19630     19629     19628     19631     19630     19628     19631
     19627     19632     19633     19627     19632     19634     19627     19632     19635
     19633     19632     19634     19633     19632     19635     19634     19632     19635
     19627     19636     19637     19627     19636     19638     19627     19636     19639
     19637     19636     19638     19637     19636     19639     19638     19636     19639
     19627     19640     19641     19627     19640     19642     19627     19640     19643
     19641     19640     19642     19641     19640     19643     19642     19640     19643
     19640     19643     19644     19640     19643     19645     19640     19643     19649
     19644     19643     19645     19644     19643     19649     19645     19643     19649
     19647     19646     19648     19647     19646     19649     19647     19646     19650
     19648     19646     19649     19648     19646     19650     19649     19646     19650
     19643     19649     19646     19646     19650     19651     19650     19651     19652
     19650     19651     19653     19650     19651     19654     19652     19651     19653
     19652     19651     19654     19653     19651     19654     19651     19654     19655
     19651     19654     19656     19651     19654     19662     19655     19654     19656
     19655     19654     19662     19656     19654     19662     19654     19656     19657
     19656     19657     19658     19656     19657     19659     19658     19657     19659
     19657     19659     19660     19657     19659     19661     19657     19659     19671
     19660     19659     19661     19660     19659     19671     19661     19659     19671
     19654     19662     19663     19654     19662     19664     19654     19662     19665
     19663     19662     19664     19663     19662     19665     19664     19662     19665
     19662     19665     19666     19665     19666     19667     19665     19666     19668
     19667     19666     19668     19666     19668     19669     19666     19668     19670
     19666     19668     19716     19669     19668     19670     19669     19668     19716
     19670     19668     19716     19659     19671     19672     19659     19671     19673
     19659     19671     19674     19672     19671     19673     19672     19671     19674
     19673     19671     19674     19671     19674     19675     19671     19674     19676
     19671     19674     19677     19675     19674     19676     19675     19674     19677
     19676     19674     19677     19674     19677     19678     19674     19677     19679
     19674     19677     19680     19678     19677     19679     19678     19677     19680
     19679     19677     19680     19677     19680     19681     19677     19680     19682
     19677     19680     19683     19681     19680     19682     19681     19680     19683
     19682     19680     19683     19680     19683     19684     19680     19683     19685
     19680     19683     19686     19684     19683     19685     19684     19683     19686
     19685     19683     19686     19683     19686     19687     19683     19686     19688
     19683     19686     19689     19687     19686     19688     19687     19686     19689
     19688     19686     19689     19686     19689     19690     19686     19689     19691
     19690     19689     19691     19689     19691     19692     19689     19691     19693
     19692     19691     19693     19691     19693     19694     19691     19693     19695
     19691     19693     19696     19694     19693     19695     19694     19693     19696
     19695     19693     19696     19693     19696     19697     19693     19696     19698
     19697     19696     19698     19696     19698     19699     19696     19698     19700
     19699     19698     19700     19698     19700     19701     19698     19700     19702
     19698     19700     19703     19701     19700     19702     19701     19700     19703
     19702     19700     19703     19700     19703     19704     19700     19703     19705
     19700     19703     19706     19704     19703     19705     19704     19703     19706
     19705     19703     19706     19703     19706     19707     19703     19706     19708
     19703     19706     19709     19707     19706     19708     19707     19706     19709
     19708     19706     19709     19706     19709     19710     19706     19709     19711
     19706     19709     19712     19710     19709     19711     19710     19709     19712
     19711     19709     19712     19709     19712     19713     19709     19712     19714
     19709     19712     19715     19713     19712     19714     19713     19712     19715
     19714     19712     19715     19668     19716     19717     19668     19716     19718
     19668     19716     19719     19717     19716     19718     19717     19716     19719
     19718     19716     19719     19716     19719     19720     19716     19719     19721
     19716     19719     19722     19720     19719     19721     19720     19719     19722
     19721     19719     19722     19719     19722     19723     19719     19722     19724
     19719     19722     19725     19723     19722     19724     19723     19722     19725
     19724     19722     19725     19722     19725     19726     19722     19725     19727
     19722     19725     19728     19726     19725     19727     19726     19725     19728
     19727     19725     19728     19725     19728     19729     19725     19728     19730
     19725     19728     19731     19729     19728     19730     19729     19728     19731
     19730     19728     19731     19728     19731     19732     19728     19731     19733
     19728     19731     19734     19732     19731     19733     19732     19731     19734
     19733     19731     19734     19731     19734     19735     19731     19734     19736
     19731     19734     19737     19735     19734     19736     19735     19734     19737
     19736     19734     19737     19734     19737     19738     19734     19737     19739
     19734     19737     19740     19738     19737     19739     19738     19737     19740
     19739     19737     19740     19737     19740     19741     19737     19740     19742
     19737     19740     19743     19741     19740     19742     19741     19740     19743
     19742     19740     19743     19740     19743     19744     19740     19743     19745
     19740     19743     19746     19744     19743     19745     19744     19743     19746
     19745     19743     19746     19743     19746     19747     19743     19746     19748
     19743     19746     19749     19747     19746     19748     19747     19746     19749
     19748     19746     19749     19746     19749     19750     19746     19749     19751
     19746     19749     19752     19750     19749     19751     19750     19749     19752
     19751     19749     19752     19749     19752     19753     19749     19752     19754
     19749     19752     19755     19753     19752     19754     19753     19752     19755
     19754     19752     19755     19752     19755     19756     19752     19755     19757
     19752     19755     19758     19756     19755     19757     19756     19755     19758
     19757     19755     19758     19755     19758     19759     19755     19758     19760
     19755     19758     19761     19759     19758     19760     19759     19758     19761
     19760     19758     19761     19758     19761     19762     19758     19761     19763
     19758     19761     19764     19762     19761     19763     19762     19761     19764
     19763     19761     19764     11106     11105     11110     11106     11105     11114
     11106     11105     11118     11110     11105     11114     11110     11105     11118
     11114     11105     11118     11105     11106     11107     11105     11106     11108
     11105     11106     11109     11107     11106     11108     11107     11106     11109
     11108     11106     11109     11105     11110     11111     11105     11110     11112
     11105     11110     11113     11111     11110     11112     11111     11110     11113
     11112     11110     11113     11105     11114     11115     11105     11114     11116
     11105     11114     11117     11115     11114     11116     11115     11114     11117
     11116     11114     11117     11105     11118     11119     11105     11118     11120
     11105     11118     11121     11119     11118     11120     11119     11118     11121
     11120     11118     11121     11118     11121     11122     11118     11121     11123
     11118     11121     11128     11122     11121     11123     11122     11121     11128
     11123     11121     11128     11125     11124     11126     11125     11124     11127
     11125     11124     11128     11126     11124     11127     11126     11124     11128
     11127     11124     11128     11124     11127     11129     11121     11128     11124
     11127     11129     11130     11127     11129     11131     11127     11129     11134
     11130     11129     11131     11130     11129     11134     11131     11129     11134
     11133     11132     11134     11133     11132     11184     11134     11132     11184
     11129     11134     11132     11129     11134     11135     11129     11134     11136
     11132     11134     11135     11132     11134     11136     11135     11134     11136
     11134     11136     11137     11134     11136     11138     11134     11136     11140
     11137     11136     11138     11137     11136     11140     11138     11136     11140
     11136     11138     11139     11136     11140     11141     11136     11140     11142
     11141     11140     11142     11140     11142     11143     11140     11142     11144
     11143     11142     11144     11142     11144     11145     11142     11144     11146
     11142     11144     11147     11145     11144     11146     11145     11144     11147
     11146     11144     11147     11144     11147     11148     11144     11147     11149
     11144     11147     11150     11148     11147     11149     11148     11147     11150
     11149     11147     11150     11147     11150     11151     11147     11150     11152
     11147     11150     11153     11151     11150     11152     11151     11150     11153
     11152     11150     11153     11150     11153     11154     11150     11153     11155
     11150     11153     11156     11154     11153     11155     11154     11153     11156
     11155     11153     11156     11153     11156     11157     11153     11156     11158
     11153     11156     11159     11157     11156     11158     11157     11156     11159
     11158     11156     11159     11156     11159     11160     11156     11159     11161
     11156     11159     11162     11160     11159     11161     11160     11159     11162
     11161     11159     11162     11159     11162     11163     11159     11162     11164
     11159     11162     11165     11163     11162     11164     11163     11162     11165
     11164     11162     11165     11162     11165     11166     11162     11165     11167
     11162     11165     11168     11166     11165     11167     11166     11165     11168
     11167     11165     11168     11165     11168     11169     11165     11168     11170
     11165     11168     11171     11169     11168     11170     11169     11168     11171
     11170     11168     11171     11168     11171     11172     11168     11171     11173
     11168     11171     11174     11172     11171     11173     11172     11171     11174
     11173     11171     11174     11171     11174     11175     11171     11174     11176
     11171     11174     11177     11175     11174     11176     11175     11174     11177
     11176     11174     11177     11174     11177     11178     11174     11177     11179
     11174     11177     11180     11178     11177     11179     11178     11177     11180
     11179     11177     11180     11177     11180     11181     11177     11180     11182
     11177     11180     11183     11181     11180     11182     11181     11180     11183
     11182     11180     11183     11132     11184     11185     11132     11184     11186
     11185     11184     11186     11184     11186     11187     11184     11186     11188
     11184     11186     11189     11187     11186     11188     11187     11186     11189
     11188     11186     11189     11186     11189     11190     11186     11189     11191
     11186     11189     11192     11190     11189     11191     11190     11189     11192
     11191     11189     11192     11189     11192     11193     11189     11192     11194
     11189     11192     11195     11193     11192     11194     11193     11192     11195
     11194     11192     11195     11192     11195     11196     11192     11195     11197
     11192     11195     11198     11196     11195     11197     11196     11195     11198
     11197     11195     11198     11195     11198     11199     11195     11198     11200
     11195     11198     11201     11199     11198     11200     11199     11198     11201
     11200     11198     11201     11198     11201     11202     11198     11201     11203
     11198     11201     11204     11202     11201     11203     11202     11201     11204
     11203     11201     11204     11201     11204     11205     11201     11204     11206
     11201     11204     11207     11205     11204     11206     11205     11204     11207
     11206     11204     11207     11204     11207     11208     11204     11207     11209
     11208     11207     11209     11207     11209     11210     11207     11209     11211
     11210     11209     11211     11209     11211     11212     11209     11211     11213
     11209     11211     11214     11212     11211     11213     11212     11211     11214
     11213     11211     11214     11211     11214     11215     11211     11214     11216
     11211     11214     11217     11215     11214     11216     11215     11214     11217
     11216     11214     11217     11214     11217     11218     11214     11217     11219
     11214     11217     11220     11218     11217     11219     11218     11217     11220
     11219     11217     11220     11217     11220     11221     11217     11220     11222
     11217     11220     11223     11221     11220     11222     11221     11220     11223
     11222     11220     11223     11220     11223     11224     11220     11223     11225
     11220     11223     11226     11224     11223     11225     11224     11223     11226
     11225     11223     11226     11223     11226     11227     11223     11226     11228
     11223     11226     11229     11227     11226     11228     11227     11226     11229
     11228     11226     11229     11226     11229     11230     11226     11229     11231
     11226     11229     11232     11230     11229     11231     11230     11229     11232
     11231     11229     11232     11229     11232     11233     11229     11232     11234
     11229     11232     11235     11233     11232     11234     11233     11232     11235
     11234     11232     11235     11237     11236     11241     11237     11236     11245
     11237     11236     11249     11241     11236     11245     11241     11236     11249
     11245     11236     11249     11236     11237     11238     11236     11237     11239
     11236     11237     11240     11238     11237     11239     11238     11237     11240
     11239     11237     11240     11236     11241     11242     11236     11241     11243
     11236     11241     11244     11242     11241     11243     11242     11241     11244
     11243     11241     11244     11236     11245     11246     11236     11245     11247
     11236     11245     11248     11246     11245     11247     11246     11245     11248
     11247     11245     11248     11236     11249     11250     11236     11249     11251
     11236     11249     11252     11250     11249     11251     11250     11249     11252
     11251     11249     11252     11249     11252     11253     11249     11252     11254
     11249     11252     11259     11253     11252     11254     11253     11252     11259
     11254     11252     11259     11256     11255     11257     11256     11255     11258
     11256     11255     11259     11257     11255     11258     11257     11255     11259
     11258     11255     11259     11255     11258     11260     11252     11259     11255
     11258     11260     11261     11258     11260     11262     11258     11260     11265
     11261     11260     11262     11261     11260     11265     11262     11260     11265
     11264     11263     11265     11264     11263     11315     11265     11263     11315
     11260     11265     11263     11260     11265     11266     11260     11265     11267
     11263     11265     11266     11263     11265     11267     11266     11265     11267
     11265     11267     11268     11265     11267     11269     11265     11267     11271
     11268     11267     11269     11268     11267     11271     11269     11267     11271
     11267     11269     11270     11267     11271     11272     11267     11271     11273
     11272     11271     11273     11271     11273     11274     11271     11273     11275
     11274     11273     11275     11273     11275     11276     11273     11275     11277
     11273     11275     11278     11276     11275     11277     11276     11275     11278
     11277     11275     11278     11275     11278     11279     11275     11278     11280
     11275     11278     11281     11279     11278     11280     11279     11278     11281
     11280     11278     11281     11278     11281     11282     11278     11281     11283
     11278     11281     11284     11282     11281     11283     11282     11281     11284
     11283     11281     11284     11281     11284     11285     11281     11284     11286
     11281     11284     11287     11285     11284     11286     11285     11284     11287
     11286     11284     11287     11284     11287     11288     11284     11287     11289
     11284     11287     11290     11288     11287     11289     11288     11287     11290
     11289     11287     11290     11287     11290     11291     11287     11290     11292
     11287     11290     11293     11291     11290     11292     11291     11290     11293
     11292     11290     11293     11290     11293     11294     11290     11293     11295
     11290     11293     11296     11294     11293     11295     11294     11293     11296
     11295     11293     11296     11293     11296     11297     11293     11296     11298
     11293     11296     11299     11297     11296     11298     11297     11296     11299
     11298     11296     11299     11296     11299     11300     11296     11299     11301
     11296     11299     11302     11300     11299     11301     11300     11299     11302
     11301     11299     11302     11299     11302     11303     11299     11302     11304
     11299     11302     11305     11303     11302     11304     11303     11302     11305
     11304     11302     11305     11302     11305     11306     11302     11305     11307
     11302     11305     11308     11306     11305     11307     11306     11305     11308
     11307     11305     11308     11305     11308     11309     11305     11308     11310
     11305     11308     11311     11309     11308     11310     11309     11308     11311
     11310     11308     11311     11308     11311     11312     11308     11311     11313
     11308     11311     11314     11312     11311     11313     11312     11311     11314
     11313     11311     11314     11263     11315     11316     11263     11315     11317
     11316     11315     11317     11315     11317     11318     11315     11317     11319
     11315     11317     11320     11318     11317     11319     11318     11317     11320
     11319     11317     11320     11317     11320     11321     11317     11320     11322
     11317     11320     11323     11321     11320     11322     11321     11320     11323
     11322     11320     11323     11320     11323     11324     11320     11323     11325
     11320     11323     11326     11324     11323     11325     11324     11323     11326
     11325     11323     11326     11323     11326     11327     11323     11326     11328
     11323     11326     11329     11327     11326     11328     11327     11326     11329
     11328     11326     11329     11326     11329     11330     11326     11329     11331
     11326     11329     11332     11330     11329     11331     11330     11329     11332
     11331     11329     11332     11329     11332     11333     11329     11332     11334
     11329     11332     11335     11333     11332     11334     11333     11332     11335
     11334     11332     11335     11332     11335     11336     11332     11335     11337
     11332     11335     11338     11336     11335     11337     11336     11335     11338
     11337     11335     11338     11335     11338     11339     11335     11338     11340
     11339     11338     11340     11338     11340     11341     11338     11340     11342
     11341     11340     11342     11340     11342     11343     11340     11342     11344
     11340     11342     11345     11343     11342     11344     11343     11342     11345
     11344     11342     11345     11342     11345     11346     11342     11345     11347
     11342     11345     11348     11346     11345     11347     11346     11345     11348
     11347     11345     11348     11345     11348     11349     11345     11348     11350
     11345     11348     11351     11349     11348     11350     11349     11348     11351
     11350     11348     11351     11348     11351     11352     11348     11351     11353
     11348     11351     11354     11352     11351     11353     11352     11351     11354
     11353     11351     11354     11351     11354     11355     11351     11354     11356
     11351     11354     11357     11355     11354     11356     11355     11354     11357
     11356     11354     11357     11354     11357     11358     11354     11357     11359
     11354     11357     11360     11358     11357     11359     11358     11357     11360
     11359     11357     11360     11357     11360     11361     11357     11360     11362
     11357     11360     11363     11361     11360     11362     11361     11360     11363
     11362     11360     11363     11360     11363     11364     11360     11363     11365
     11360     11363     11366     11364     11363     11365     11364     11363     11366
     11365     11363     11366      3772      3771      3773      3772      3771      3775
      3772      3771      3817      3773      3771      3775      3773      3771      3817
      3775      3771      3817      3771      3773      3774      3771      3775      3776
      3771      3775      3777      3771      3775      3778      3776      3775      3777
      3776      3775      3778      3777      3775      3778      3775      3778      3779
      3775      3778      3809      3779      3778      3809      3778      3779      3780
      3778      3779      3781      3780      3779      3781      3779      3781      3782
      3779      3781      3783      3779      3781      3784      3782      3781      3783
      3782      3781      3784      3783      3781      3784      3781      3784      3785
      3781      3784      3786      3781      3784      3807      3785      3784      3786
      3785      3784      3807      3786      3784      3807      3784      3786      3787
      3784      3786      3788      3784      3786      3796      3787      3786      3788
      3787      3786      3796      3788      3786      3796      3786      3788      3789
      3786      3788      3790      3786      3788      3791      3789      3788      3790
      3789      3788      3791      3790      3788      3791      3788      3791      3792
      3788      3791      3793      3788      3791      3794      3792      3791      3793
      3792      3791      3794      3793      3791      3794      3791      3794      3795
      3791      3794      3796      3791      3794      3820      3795      3794      3796
      3795      3794      3820      3796      3794      3820      3786      3796      3794
      3786      3796      3797      3786      3796      3801      3794      3796      3797
      3794      3796      3801      3797      3796      3801      3796      3797      3798
      3796      3797      3799      3796      3797      3800      3798      3797      3799
      3798      3797      3800      3799      3797      3800      3796      3801      3802
      3796      3801      3803      3796      3801      3804      3802      3801      3803
      3802      3801      3804      3803      3801      3804      3801      3804      3805
      3801      3804      3806      3801      3804      3807      3805      3804      3806
      3805      3804      3807      3806      3804      3807      3784      3807      3804
      3784      3807      3808      3784      3807      3809      3804      3807      3808
      3804      3807      3809      3808      3807      3809      3778      3809      3807
      3778      3809      3810      3778      3809      3814      3807      3809      3810
      3807      3809      3814      3810      3809      3814      3809      3810      3811
      3809      3810      3812      3809      3810      3813      3811      3810      3812
      3811      3810      3813      3812      3810      3813      3809      3814      3815
      3809      3814      3816      3809      3814      3817      3815      3814      3816
      3815      3814      3817      3816      3814      3817      3771      3817      3814
      3771      3817      3818      3771      3817      3819      3814      3817      3818
      3814      3817      3819      3818      3817      3819      3794      3820      3821
      3794      3820      3822      3794      3820      3826      3821      3820      3822
      3821      3820      3826      3822      3820      3826      3820      3822      3823
      3820      3822      3824      3820      3822      3825      3823      3822      3824
      3823      3822      3825      3824      3822      3825      3820      3826      3827
      3820      3826      3828      3820      3826      3829      3827      3826      3828
      3827      3826      3829      3828      3826      3829      3826      3829      3830
      3826      3829      3831      3826      3829      3832      3830      3829      3831
      3830      3829      3832      3831      3829      3832      3829      3832      3833
      3829      3832      3834      3829      3832      3835      3833      3832      3834
      3833      3832      3835      3834      3832      3835      3832      3835      3836
      3832      3835      3837      3832      3835      3841      3836      3835      3837
      3836      3835      3841      3837      3835      3841      3835      3837      3838
      3835      3837      3839      3835      3837      3840      3838      3837      3839
      3838      3837      3840      3839      3837      3840      3835      3841      3842
      3835      3841      3843      3835      3841      3844      3842      3841      3843
      3842      3841      3844      3843      3841      3844      7330      7329      7331
      7330      7329      7332      7330      7329      7333      7331      7329      7332
      7331      7329      7333      7332      7329      7333      7329      7333      7334
      7329      7333      7335      7329      7333      7336      7334      7333      7335
      7334      7333      7336      7335      7333      7336      7333      7336      7337
      7333      7336      7338      7333      7336      7342      7337      7336      7338
      7337      7336      7342      7338      7336      7342      7340      7339      7341
      7340      7339      7342      7340      7339      7343      7341      7339      7342
      7341      7339      7343      7342      7339      7343      7336      7342      7339
      7339      7343      7344      7343      7344      7345      7343      7344      7346
      7343      7344      7347      7345      7344      7346      7345      7344      7347
      7346      7344      7347      7344      7347      7348      7344      7347      7349
      7344      7347      7355      7348      7347      7349      7348      7347      7355
      7349      7347      7355      7347      7349      7350      7349      7350      7351
      7349      7350      7352      7351      7350      7352      7350      7352      7353
      7350      7352      7354      7350      7352      7364      7353      7352      7354
      7353      7352      7364      7354      7352      7364      7347      7355      7356
      7347      7355      7357      7347      7355      7358      7356      7355      7357
      7356      7355      7358      7357      7355      7358      7355      7358      7359
      7358      7359      7360      7358      7359      7361      7360      7359      7361
      7359      7361      7362      7359      7361      7363      7359      7361      7411
      7362      7361      7363      7362      7361      7411      7363      7361      7411
      7352      7364      7365      7352      7364      7366      7352      7364      7367
      7365      7364      7366      7365      7364      7367      7366      7364      7367
      7364      7367      7368      7364      7367      7369      7364      7367      7370
      7368      7367      7369      7368      7367      7370      7369      7367      7370
      7367      7370      7371      7367      7370      7372      7367      7370      7373
      7371      7370      7372      7371      7370      7373      7372      7370      7373
      7370      7373      7374      7370      7373      7375      7370      7373      7376
      7374      7373      7375      7374      7373      7376      7375      7373      7376
      7373      7376      7377      7373      7376      7378      7373      7376      7379
      7377      7376      7378      7377      7376      7379      7378      7376      7379
      7376      7379      7380      7376      7379      7381      7376      7379      7382
      7380      7379      7381      7380      7379      7382      7381      7379      7382
      7379      7382      7383      7379      7382      7384      7383      7382      7384
      7382      7384      7385      7382      7384      7386      7385      7384      7386
      7384      7386      7387      7384      7386      7388      7384      7386      7389
      7387      7386      7388      7387      7386      7389      7388      7386      7389
      7386      7389      7390      7386      7389      7391      7386      7389      7392
      7390      7389      7391      7390      7389      7392      7391      7389      7392
      7389      7392      7393      7389      7392      7394      7389      7392      7395
      7393      7392      7394      7393      7392      7395      7394      7392      7395
      7392      7395      7396      7392      7395      7397      7392      7395      7398
      7396      7395      7397      7396      7395      7398      7397      7395      7398
      7395      7398      7399      7395      7398      7400      7395      7398      7401
      7399      7398      7400      7399      7398      7401      7400      7398      7401
      7398      7401      7402      7398      7401      7403      7398      7401      7404
      7402      7401      7403      7402      7401      7404      7403      7401      7404
      7401      7404      7405      7401      7404      7406      7401      7404      7407
      7405      7404      7406      7405      7404      7407      7406      7404      7407
      7404      7407      7408      7404      7407      7409      7404      7407      7410
      7408      7407      7409      7408      7407      7410      7409      7407      7410
      7361      7411      7412      7361      7411      7413      7361      7411      7414
      7412      7411      7413      7412      7411      7414      7413      7411      7414
      7411      7414      7415      7411      7414      7416      7411      7414      7417
      7415      7414      7416      7415      7414      7417      7416      7414      7417
      7414      7417      7418      7414      7417      7419      7414      7417      7420
      7418      7417      7419      7418      7417      7420      7419      7417      7420
      7417      7420      7421      7417      7420      7422      7417      7420      7423
      7421      7420      7422      7421      7420      7423      7422      7420      7423
      7420      7423      7424      7420      7423      7425      7420      7423      7426
      7424      7423      7425      7424      7423      7426      7425      7423      7426
      7423      7426      7427      7423      7426      7428      7423      7426      7429
      7427      7426      7428      7427      7426      7429      7428      7426      7429
      7426      7429      7430      7426      7429      7431      7426      7429      7432
      7430      7429      7431      7430      7429      7432      7431      7429      7432
      7429      7432      7433      7429      7432      7434      7429      7432      7435
      7433      7432      7434      7433      7432      7435      7434      7432      7435
      7432      7435      7436      7432      7435      7437      7432      7435      7438
      7436      7435      7437      7436      7435      7438      7437      7435      7438
      7435      7438      7439      7435      7438      7440      7435      7438      7441
      7439      7438      7440      7439      7438      7441      7440      7438      7441
      7438      7441      7442      7438      7441      7443      7438      7441      7444
      7442      7441      7443      7442      7441      7444      7443      7441      7444
      7441      7444      7445      7441      7444      7446      7441      7444      7447
      7445      7444      7446      7445      7444      7447      7446      7444      7447
      7444      7447      7448      7444      7447      7449      7444      7447      7450
      7448      7447      7449      7448      7447      7450      7449      7447      7450
      7447      7450      7451      7447      7450      7452      7447      7450      7453
      7451      7450      7452      7451      7450      7453      7452      7450      7453
      7450      7453      7454      7450      7453      7455      7450      7453      7456
      7454      7453      7455      7454      7453      7456      7455      7453      7456
      7453      7456      7457      7453      7456      7458      7453      7456      7459
      7457      7456      7458      7457      7456      7459      7458      7456      7459
      3846      3845      3847      3846      3845      3849      3846      3845      3891
      3847      3845      3849      3847      3845      3891      3849      3845      3891
      3845      3847      3848      3845      3849      3850      3845      3849      3851
      3845      3849      3852      3850      3849      3851      3850      3849      3852
      3851      3849      3852      3849      3852      3853      3849      3852      3883
      3853      3852      3883      3852      3853      3854      3852      3853      3855
      3854      3853      3855      3853      3855      3856      3853      3855      3857
      3853      3855      3858      3856      3855      3857      3856      3855      3858
      3857      3855      3858      3855      3858      3859      3855      3858      3860
      3855      3858      3881      3859      3858      3860      3859      3858      3881
      3860      3858      3881      3858      3860      3861      3858      3860      3862
      3858      3860      3870      3861      3860      3862      3861      3860      3870
      3862      3860      3870      3860      3862      3863      3860      3862      3864
      3860      3862      3865      3863      3862      3864      3863      3862      3865
      3864      3862      3865      3862      3865      3866      3862      3865      3867
      3862      3865      3868      3866      3865      3867      3866      3865      3868
      3867      3865      3868      3865      3868      3869      3865      3868      3870
      3865      3868      3894      3869      3868      3870      3869      3868      3894
      3870      3868      3894      3860      3870      3868      3860      3870      3871
      3860      3870      3875      3868      3870      3871      3868      3870      3875
      3871      3870      3875      3870      3871      3872      3870      3871      3873
      3870      3871      3874      3872      3871      3873      3872      3871      3874
      3873      3871      3874      3870      3875      3876      3870      3875      3877
      3870      3875      3878      3876      3875      3877      3876      3875      3878
      3877      3875      3878      3875      3878      3879      3875      3878      3880
      3875      3878      3881      3879      3878      3880      3879      3878      3881
      3880      3878      3881      3858      3881      3878      3858      3881      3882
      3858      3881      3883      3878      3881      3882      3878      3881      3883
      3882      3881      3883      3852      3883      3881      3852      3883      3884
      3852      3883      3888      3881      3883      3884      3881      3883      3888
      3884      3883      3888      3883      3884      3885      3883      3884      3886
      3883      3884      3887      3885      3884      3886      3885      3884      3887
      3886      3884      3887      3883      3888      3889      3883      3888      3890
      3883      3888      3891      3889      3888      3890      3889      3888      3891
      3890      3888      3891      3845      3891      3888      3845      3891      3892
      3845      3891      3893      3888      3891      3892      3888      3891      3893
      3892      3891      3893      3868      3894      3895      3868      3894      3896
      3868      3894      3900      3895      3894      3896      3895      3894      3900
      3896      3894      3900      3894      3896      3897      3894      3896      3898
      3894      3896      3899      3897      3896      3898      3897      3896      3899
      3898      3896      3899      3894      3900      3901      3894      3900      3902
      3894      3900      3903      3901      3900      3902      3901      3900      3903
      3902      3900      3903      3900      3903      3904      3900      3903      3905
      3900      3903      3906      3904      3903      3905      3904      3903      3906
      3905      3903      3906      3903      3906      3907      3903      3906      3908
      3903      3906      3909      3907      3906      3908      3907      3906      3909
      3908      3906      3909      3906      3909      3910      3906      3909      3911
      3906      3909      3915      3910      3909      3911      3910      3909      3915
      3911      3909      3915      3909      3911      3912      3909      3911      3913
      3909      3911      3914      3912      3911      3913      3912      3911      3914
      3913      3911      3914      3909      3915      3916      3909      3915      3917
      3909      3915      3918      3916      3915      3917      3916      3915      3918
      3917      3915      3918     16870     16869     16871     16870     16869     16872
     16870     16869     16873     16871     16869     16872     16871     16869     16873
     16872     16869     16873     16869     16873     16874     16869     16873     16875
     16869     16873     16876     16874     16873     16875     16874     16873     16876
     16875     16873     16876     16873     16876     16877     16873     16876     16878
     16873     16876     16882     16877     16876     16878     16877     16876     16882
     16878     16876     16882     16880     16879     16881     16880     16879     16882
     16880     16879     16883     16881     16879     16882     16881     16879     16883
     16882     16879     16883     16876     16882     16879     16879     16883     16884
     16883     16884     16885     16883     16884     16886     16883     16884     16887
     16885     16884     16886     16885     16884     16887     16886     16884     16887
     16884     16887     16888     16884     16887     16889     16884     16887     16895
     16888     16887     16889     16888     16887     16895     16889     16887     16895
     16887     16889     16890     16889     16890     16891     16889     16890     16892
     16891     16890     16892     16890     16892     16893     16890     16892     16894
     16890     16892     16904     16893     16892     16894     16893     16892     16904
     16894     16892     16904     16887     16895     16896     16887     16895     16897
     16887     16895     16898     16896     16895     16897     16896     16895     16898
     16897     16895     16898     16895     16898     16899     16898     16899     16900
     16898     16899     16901     16900     16899     16901     16899     16901     16902
     16899     16901     16903     16899     16901     16951     16902     16901     16903
     16902     16901     16951     16903     16901     16951     16892     16904     16905
     16892     16904     16906     16892     16904     16907     16905     16904     16906
     16905     16904     16907     16906     16904     16907     16904     16907     16908
     16904     16907     16909     16904     16907     16910     16908     16907     16909
     16908     16907     16910     16909     16907     16910     16907     16910     16911
     16907     16910     16912     16911     16910     16912     16910     16912     16913
     16910     16912     16914     16913     16912     16914     16912     16914     16915
     16912     16914     16916     16912     16914     16917     16915     16914     16916
     16915     16914     16917     16916     16914     16917     16914     16917     16918
     16914     16917     16919     16918     16917     16919     16917     16919     16920
     16917     16919     16921     16920     16919     16921     16919     16921     16922
     16919     16921     16923     16919     16921     16924     16922     16921     16923
     16922     16921     16924     16923     16921     16924     16921     16924     16925
     16921     16924     16926     16925     16924     16926     16924     16926     16927
     16924     16926     16928     16927     16926     16928     16926     16928     16929
     16926     16928     16930     16926     16928     16931     16929     16928     16930
     16929     16928     16931     16930     16928     16931     16928     16931     16932
     16928     16931     16933     16932     16931     16933     16931     16933     16934
     16931     16933     16935     16934     16933     16935     16933     16935     16936
     16933     16935     16937     16933     16935     16938     16936     16935     16937
     16936     16935     16938     16937     16935     16938     16935     16938     16939
     16935     16938     16940     16935     16938     16941     16939     16938     16940
     16939     16938     16941     16940     16938     16941     16938     16941     16942
     16938     16941     16943     16938     16941     16944     16942     16941     16943
     16942     16941     16944     16943     16941     16944     16941     16944     16945
     16941     16944     16946     16941     16944     16947     16945     16944     16946
     16945     16944     16947     16946     16944     16947     16944     16947     16948
     16944     16947     16949     16944     16947     16950     16948     16947     16949
     16948     16947     16950     16949     16947     16950     16901     16951     16952
     16901     16951     16953     16901     16951     16954     16952     16951     16953
     16952     16951     16954     16953     16951     16954     16951     16954     16955
     16951     16954     16956     16951     16954     16957     16955     16954     16956
     16955     16954     16957     16956     16954     16957     16954     16957     16958
     16954     16957     16959     16954     16957     16960     16958     16957     16959
     16958     16957     16960     16959     16957     16960     16957     16960     16961
     16957     16960     16962     16957     16960     16963     16961     16960     16962
     16961     16960     16963     16962     16960     16963     16960     16963     16964
     16960     16963     16965     16960     16963     16966     16964     16963     16965
     16964     16963     16966     16965     16963     16966     16963     16966     16967
     16963     16966     16968     16963     16966     16969     16967     16966     16968
     16967     16966     16969     16968     16966     16969     16966     16969     16970
     16966     16969     16971     16966     16969     16972     16970     16969     16971
     16970     16969     16972     16971     16969     16972     16969     16972     16973
     16969     16972     16974     16969     16972     16975     16973     16972     16974
     16973     16972     16975     16974     16972     16975     16972     16975     16976
     16972     16975     16977     16972     16975     16978     16976     16975     16977
     16976     16975     16978     16977     16975     16978     16975     16978     16979
     16975     16978     16980     16975     16978     16981     16979     16978     16980
     16979     16978     16981     16980     16978     16981     16978     16981     16982
     16978     16981     16983     16978     16981     16984     16982     16981     16983
     16982     16981     16984     16983     16981     16984     16981     16984     16985
     16981     16984     16986     16981     16984     16987     16985     16984     16986
     16985     16984     16987     16986     16984     16987     16984     16987     16988
     16984     16987     16989     16984     16987     16990     16988     16987     16989
     16988     16987     16990     16989     16987     16990     16987     16990     16991
     16987     16990     16992     16987     16990     16993     16991     16990     16992
     16991     16990     16993     16992     16990     16993     16990     16993     16994
     16990     16993     16995     16990     16993     16996     16994     16993     16995
     16994     16993     16996     16995     16993     16996     16993     16996     16997
     16993     16996     16998     16993     16996     16999     16997     16996     16998
     16997     16996     16999     16998     16996     16999      3920      3919      3921
      3920      3919      3923      3920      3919      3965      3921      3919      3923
      3921      3919      3965      3923      3919      3965      3919      3921      3922
      3919      3923      3924      3919      3923      3925      3919      3923      3926
      3924      3923      3925      3924      3923      3926      3925      3923      3926
      3923      3926      3927      3923      3926      3957      3927      3926      3957
      3926      3927      3928      3926      3927      3929      3928      3927      3929
      3927      3929      3930      3927      3929      3931      3927      3929      3932
      3930      3929      3931      3930      3929      3932      3931      3929      3932
      3929      3932      3933      3929      3932      3934      3929      3932      3955
      3933      3932      3934      3933      3932      3955      3934      3932      3955
      3932      3934      3935      3932      3934      3936      3932      3934      3944
      3935      3934      3936      3935      3934      3944      3936      3934      3944
      3934      3936      3937      3934      3936      3938      3934      3936      3939
      3937      3936      3938      3937      3936      3939      3938      3936      3939
      3936      3939      3940      3936      3939      3941      3936      3939      3942
      3940      3939      3941      3940      3939      3942      3941      3939      3942
      3939      3942      3943      3939      3942      3944      3939      3942      3968
      3943      3942      3944      3943      3942      3968      3944      3942      3968
      3934      3944      3942      3934      3944      3945      3934      3944      3949
      3942      3944      3945      3942      3944      3949      3945      3944      3949
      3944      3945      3946      3944      3945      3947      3944      3945      3948
      3946      3945      3947      3946      3945      3948      3947      3945      3948
      3944      3949      3950      3944      3949      3951      3944      3949      3952
      3950      3949      3951      3950      3949      3952      3951      3949      3952
      3949      3952      3953      3949      3952      3954      3949      3952      3955
      3953      3952      3954      3953      3952      3955      3954      3952      3955
      3932      3955      3952      3932      3955      3956      3932      3955      3957
      3952      3955      3956      3952      3955      3957      3956      3955      3957
      3926      3957      3955      3926      3957      3958      3926      3957      3962
      3955      3957      3958      3955      3957      3962      3958      3957      3962
      3957      3958      3959      3957      3958      3960      3957      3958      3961
      3959      3958      3960      3959      3958      3961      3960      3958      3961
      3957      3962      3963      3957      3962      3964      3957      3962      3965
      3963      3962      3964      3963      3962      3965      3964      3962      3965
      3919      3965      3962      3919      3965      3966      3919      3965      3967
      3962      3965      3966      3962      3965      3967      3966      3965      3967
      3942      3968      3969      3942      3968      3970      3942      3968      3974
      3969      3968      3970      3969      3968      3974      3970      3968      3974
      3968      3970      3971      3968      3970      3972      3968      3970      3973
      3971      3970      3972      3971      3970      3973      3972      3970      3973
      3968      3974      3975      3968      3974      3976      3968      3974      3977
      3975      3974      3976      3975      3974      3977      3976      3974      3977
      3974      3977      3978      3974      3977      3979      3974      3977      3980
      3978      3977      3979      3978      3977      3980      3979      3977      3980
      3977      3980      3981      3977      3980      3982      3977      3980      3983
      3981      3980      3982      3981      3980      3983      3982      3980      3983
      3980      3983      3984      3980      3983      3985      3980      3983      3989
      3984      3983      3985      3984      3983      3989      3985      3983      3989
      3983      3985      3986      3983      3985      3987      3983      3985      3988
      3986      3985      3987      3986      3985      3988      3987      3985      3988
      3983      3989      3990      3983      3989      3991      3983      3989      3992
      3990      3989      3991      3990      3989      3992      3991      3989      3992
     11368     11367     11372     11368     11367     11376     11368     11367     11380
     11372     11367     11376     11372     11367     11380     11376     11367     11380
     11367     11368     11369     11367     11368     11370     11367     11368     11371
     11369     11368     11370     11369     11368     11371     11370     11368     11371
     11367     11372     11373     11367     11372     11374     11367     11372     11375
     11373     11372     11374     11373     11372     11375     11374     11372     11375
     11367     11376     11377     11367     11376     11378     11367     11376     11379
     11377     11376     11378     11377     11376     11379     11378     11376     11379
     11367     11380     11381     11367     11380     11382     11367     11380     11383
     11381     11380     11382     11381     11380     11383     11382     11380     11383
     11380     11383     11384     11380     11383     11385     11380     11383     11390
     11384     11383     11385     11384     11383     11390     11385     11383     11390
     11387     11386     11388     11387     11386     11389     11387     11386     11390
     11388     11386     11389     11388     11386     11390     11389     11386     11390
     11386     11389     11391     11383     11390     11386     11389     11391     11392
     11389     11391     11393     11389     11391     11396     11392     11391     11393
     11392     11391     11396     11393     11391     11396     11395     11394     11396
     11395     11394     11446     11396     11394     11446     11391     11396     11394
     11391     11396     11397     11391     11396     11398     11394     11396     11397
     11394     11396     11398     11397     11396     11398     11396     11398     11399
     11396     11398     11400     11396     11398     11402     11399     11398     11400
     11399     11398     11402     11400     11398     11402     11398     11400     11401
     11398     11402     11403     11398     11402     11404     11403     11402     11404
     11402     11404     11405     11402     11404     11406     11405     11404     11406
     11404     11406     11407     11404     11406     11408     11404     11406     11409
     11407     11406     11408     11407     11406     11409     11408     11406     11409
     11406     11409     11410     11406     11409     11411     11406     11409     11412
     11410     11409     11411     11410     11409     11412     11411     11409     11412
     11409     11412     11413     11409     11412     11414     11409     11412     11415
     11413     11412     11414     11413     11412     11415     11414     11412     11415
     11412     11415     11416     11412     11415     11417     11412     11415     11418
     11416     11415     11417     11416     11415     11418     11417     11415     11418
     11415     11418     11419     11415     11418     11420     11415     11418     11421
     11419     11418     11420     11419     11418     11421     11420     11418     11421
     11418     11421     11422     11418     11421     11423     11418     11421     11424
     11422     11421     11423     11422     11421     11424     11423     11421     11424
     11421     11424     11425     11421     11424     11426     11421     11424     11427
     11425     11424     11426     11425     11424     11427     11426     11424     11427
     11424     11427     11428     11424     11427     11429     11424     11427     11430
     11428     11427     11429     11428     11427     11430     11429     11427     11430
     11427     11430     11431     11427     11430     11432     11427     11430     11433
     11431     11430     11432     11431     11430     11433     11432     11430     11433
     11430     11433     11434     11430     11433     11435     11430     11433     11436
     11434     11433     11435     11434     11433     11436     11435     11433     11436
     11433     11436     11437     11433     11436     11438     11433     11436     11439
     11437     11436     11438     11437     11436     11439     11438     11436     11439
     11436     11439     11440     11436     11439     11441     11436     11439     11442
     11440     11439     11441     11440     11439     11442     11441     11439     11442
     11439     11442     11443     11439     11442     11444     11439     11442     11445
     11443     11442     11444     11443     11442     11445     11444     11442     11445
     11394     11446     11447     11394     11446     11448     11447     11446     11448
     11446     11448     11449     11446     11448     11450     11446     11448     11451
     11449     11448     11450     11449     11448     11451     11450     11448     11451
     11448     11451     11452     11448     11451     11453     11448     11451     11454
     11452     11451     11453     11452     11451     11454     11453     11451     11454
     11451     11454     11455     11451     11454     11456     11451     11454     11457
     11455     11454     11456     11455     11454     11457     11456     11454     11457
     11454     11457     11458     11454     11457     11459     11454     11457     11460
     11458     11457     11459     11458     11457     11460     11459     11457     11460
     11457     11460     11461     11457     11460     11462     11457     11460     11463
     11461     11460     11462     11461     11460     11463     11462     11460     11463
     11460     11463     11464     11460     11463     11465     11460     11463     11466
     11464     11463     11465     11464     11463     11466     11465     11463     11466
     11463     11466     11467     11463     11466     11468     11463     11466     11469
     11467     11466     11468     11467     11466     11469     11468     11466     11469
     11466     11469     11470     11466     11469     11471     11470     11469     11471
     11469     11471     11472     11469     11471     11473     11472     11471     11473
     11471     11473     11474     11471     11473     11475     11471     11473     11476
     11474     11473     11475     11474     11473     11476     11475     11473     11476
     11473     11476     11477     11473     11476     11478     11473     11476     11479
     11477     11476     11478     11477     11476     11479     11478     11476     11479
     11476     11479     11480     11476     11479     11481     11476     11479     11482
     11480     11479     11481     11480     11479     11482     11481     11479     11482
     11479     11482     11483     11479     11482     11484     11479     11482     11485
     11483     11482     11484     11483     11482     11485     11484     11482     11485
     11482     11485     11486     11482     11485     11487     11482     11485     11488
     11486     11485     11487     11486     11485     11488     11487     11485     11488
     11485     11488     11489     11485     11488     11490     11485     11488     11491
     11489     11488     11490     11489     11488     11491     11490     11488     11491
     11488     11491     11492     11488     11491     11493     11488     11491     11494
     11492     11491     11493     11492     11491     11494     11493     11491     11494
     11491     11494     11495     11491     11494     11496     11491     11494     11497
     11495     11494     11496     11495     11494     11497     11496     11494     11497
     11499     11498     11503     11499     11498     11507     11499     11498     11511
     11503     11498     11507     11503     11498     11511     11507     11498     11511
     11498     11499     11500     11498     11499     11501     11498     11499     11502
     11500     11499     11501     11500     11499     11502     11501     11499     11502
     11498     11503     11504     11498     11503     11505     11498     11503     11506
     11504     11503     11505     11504     11503     11506     11505     11503     11506
     11498     11507     11508     11498     11507     11509     11498     11507     11510
     11508     11507     11509     11508     11507     11510     11509     11507     11510
     11498     11511     11512     11498     11511     11513     11498     11511     11514
     11512     11511     11513     11512     11511     11514     11513     11511     11514
     11511     11514     11515     11511     11514     11516     11511     11514     11521
     11515     11514     11516     11515     11514     11521     11516     11514     11521
     11518     11517     11519     11518     11517     11520     11518     11517     11521
     11519     11517     11520     11519     11517     11521     11520     11517     11521
     11517     11520     11522     11514     11521     11517     11520     11522     11523
     11520     11522     11524     11520     11522     11527     11523     11522     11524
     11523     11522     11527     11524     11522     11527     11526     11525     11527
     11526     11525     11577     11527     11525     11577     11522     11527     11525
     11522     11527     11528     11522     11527     11529     11525     11527     11528
     11525     11527     11529     11528     11527     11529     11527     11529     11530
     11527     11529     11531     11527     11529     11533     11530     11529     11531
     11530     11529     11533     11531     11529     11533     11529     11531     11532
     11529     11533     11534     11529     11533     11535     11534     11533     11535
     11533     11535     11536     11533     11535     11537     11536     11535     11537
     11535     11537     11538     11535     11537     11539     11535     11537     11540
     11538     11537     11539     11538     11537     11540     11539     11537     11540
     11537     11540     11541     11537     11540     11542     11537     11540     11543
     11541     11540     11542     11541     11540     11543     11542     11540     11543
     11540     11543     11544     11540     11543     11545     11540     11543     11546
     11544     11543     11545     11544     11543     11546     11545     11543     11546
     11543     11546     11547     11543     11546     11548     11543     11546     11549
     11547     11546     11548     11547     11546     11549     11548     11546     11549
     11546     11549     11550     11546     11549     11551     11546     11549     11552
     11550     11549     11551     11550     11549     11552     11551     11549     11552
     11549     11552     11553     11549     11552     11554     11549     11552     11555
     11553     11552     11554     11553     11552     11555     11554     11552     11555
     11552     11555     11556     11552     11555     11557     11552     11555     11558
     11556     11555     11557     11556     11555     11558     11557     11555     11558
     11555     11558     11559     11555     11558     11560     11555     11558     11561
     11559     11558     11560     11559     11558     11561     11560     11558     11561
     11558     11561     11562     11558     11561     11563     11558     11561     11564
     11562     11561     11563     11562     11561     11564     11563     11561     11564
     11561     11564     11565     11561     11564     11566     11561     11564     11567
     11565     11564     11566     11565     11564     11567     11566     11564     11567
     11564     11567     11568     11564     11567     11569     11564     11567     11570
     11568     11567     11569     11568     11567     11570     11569     11567     11570
     11567     11570     11571     11567     11570     11572     11567     11570     11573
     11571     11570     11572     11571     11570     11573     11572     11570     11573
     11570     11573     11574     11570     11573     11575     11570     11573     11576
     11574     11573     11575     11574     11573     11576     11575     11573     11576
     11525     11577     11578     11525     11577     11579     11578     11577     11579
     11577     11579     11580     11577     11579     11581     11577     11579     11582
     11580     11579     11581     11580     11579     11582     11581     11579     11582
     11579     11582     11583     11579     11582     11584     11579     11582     11585
     11583     11582     11584     11583     11582     11585     11584     11582     11585
     11582     11585     11586     11582     11585     11587     11582     11585     11588
     11586     11585     11587     11586     11585     11588     11587     11585     11588
     11585     11588     11589     11585     11588     11590     11585     11588     11591
     11589     11588     11590     11589     11588     11591     11590     11588     11591
     11588     11591     11592     11588     11591     11593     11588     11591     11594
     11592     11591     11593     11592     11591     11594     11593     11591     11594
     11591     11594     11595     11591     11594     11596     11591     11594     11597
     11595     11594     11596     11595     11594     11597     11596     11594     11597
     11594     11597     11598     11594     11597     11599     11594     11597     11600
     11598     11597     11599     11598     11597     11600     11599     11597     11600
     11597     11600     11601     11597     11600     11602     11601     11600     11602
     11600     11602     11603     11600     11602     11604     11603     11602     11604
     11602     11604     11605     11602     11604     11606     11602     11604     11607
     11605     11604     11606     11605     11604     11607     11606     11604     11607
     11604     11607     11608     11604     11607     11609     11604     11607     11610
     11608     11607     11609     11608     11607     11610     11609     11607     11610
     11607     11610     11611     11607     11610     11612     11607     11610     11613
     11611     11610     11612     11611     11610     11613     11612     11610     11613
     11610     11613     11614     11610     11613     11615     11610     11613     11616
     11614     11613     11615     11614     11613     11616     11615     11613     11616
     11613     11616     11617     11613     11616     11618     11613     11616     11619
     11617     11616     11618     11617     11616     11619     11618     11616     11619
     11616     11619     11620     11616     11619     11621     11616     11619     11622
     11620     11619     11621     11620     11619     11622     11621     11619     11622
     11619     11622     11623     11619     11622     11624     11619     11622     11625
     11623     11622     11624     11623     11622     11625     11624     11622     11625
     11622     11625     11626     11622     11625     11627     11622     11625     11628
     11626     11625     11627     11626     11625     11628     11627     11625     11628
     11630     11629     11634     11630     11629     11638     11630     11629     11642
     11634     11629     11638     11634     11629     11642     11638     11629     11642
     11629     11630     11631     11629     11630     11632     11629     11630     11633
     11631     11630     11632     11631     11630     11633     11632     11630     11633
     11629     11634     11635     11629     11634     11636     11629     11634     11637
     11635     11634     11636     11635     11634     11637     11636     11634     11637
     11629     11638     11639     11629     11638     11640     11629     11638     11641
     11639     11638     11640     11639     11638     11641     11640     11638     11641
     11629     11642     11643     11629     11642     11644     11629     11642     11645
     11643     11642     11644     11643     11642     11645     11644     11642     11645
     11642     11645     11646     11642     11645     11647     11642     11645     11652
     11646     11645     11647     11646     11645     11652     11647     11645     11652
     11649     11648     11650     11649     11648     11651     11649     11648     11652
     11650     11648     11651     11650     11648     11652     11651     11648     11652
     11648     11651     11653     11645     11652     11648     11651     11653     11654
     11651     11653     11655     11651     11653     11658     11654     11653     11655
     11654     11653     11658     11655     11653     11658     11657     11656     11658
     11657     11656     11708     11658     11656     11708     11653     11658     11656
     11653     11658     11659     11653     11658     11660     11656     11658     11659
     11656     11658     11660     11659     11658     11660     11658     11660     11661
     11658     11660     11662     11658     11660     11664     11661     11660     11662
     11661     11660     11664     11662     11660     11664     11660     11662     11663
     11660     11664     11665     11660     11664     11666     11665     11664     11666
     11664     11666     11667     11664     11666     11668     11667     11666     11668
     11666     11668     11669     11666     11668     11670     11666     11668     11671
     11669     11668     11670     11669     11668     11671     11670     11668     11671
     11668     11671     11672     11668     11671     11673     11668     11671     11674
     11672     11671     11673     11672     11671     11674     11673     11671     11674
     11671     11674     11675     11671     11674     11676     11671     11674     11677
     11675     11674     11676     11675     11674     11677     11676     11674     11677
     11674     11677     11678     11674     11677     11679     11674     11677     11680
     11678     11677     11679     11678     11677     11680     11679     11677     11680
     11677     11680     11681     11677     11680     11682     11677     11680     11683
     11681     11680     11682     11681     11680     11683     11682     11680     11683
     11680     11683     11684     11680     11683     11685     11680     11683     11686
     11684     11683     11685     11684     11683     11686     11685     11683     11686
     11683     11686     11687     11683     11686     11688     11683     11686     11689
     11687     11686     11688     11687     11686     11689     11688     11686     11689
     11686     11689     11690     11686     11689     11691     11686     11689     11692
     11690     11689     11691     11690     11689     11692     11691     11689     11692
     11689     11692     11693     11689     11692     11694     11689     11692     11695
     11693     11692     11694     11693     11692     11695     11694     11692     11695
     11692     11695     11696     11692     11695     11697     11692     11695     11698
     11696     11695     11697     11696     11695     11698     11697     11695     11698
     11695     11698     11699     11695     11698     11700     11695     11698     11701
     11699     11698     11700     11699     11698     11701     11700     11698     11701
     11698     11701     11702     11698     11701     11703     11698     11701     11704
     11702     11701     11703     11702     11701     11704     11703     11701     11704
     11701     11704     11705     11701     11704     11706     11701     11704     11707
     11705     11704     11706     11705     11704     11707     11706     11704     11707
     11656     11708     11709     11656     11708     11710     11709     11708     11710
     11708     11710     11711     11708     11710     11712     11708     11710     11713
     11711     11710     11712     11711     11710     11713     11712     11710     11713
     11710     11713     11714     11710     11713     11715     11710     11713     11716
     11714     11713     11715     11714     11713     11716     11715     11713     11716
     11713     11716     11717     11713     11716     11718     11713     11716     11719
     11717     11716     11718     11717     11716     11719     11718     11716     11719
     11716     11719     11720     11716     11719     11721     11716     11719     11722
     11720     11719     11721     11720     11719     11722     11721     11719     11722
     11719     11722     11723     11719     11722     11724     11719     11722     11725
     11723     11722     11724     11723     11722     11725     11724     11722     11725
     11722     11725     11726     11722     11725     11727     11722     11725     11728
     11726     11725     11727     11726     11725     11728     11727     11725     11728
     11725     11728     11729     11725     11728     11730     11725     11728     11731
     11729     11728     11730     11729     11728     11731     11730     11728     11731
     11728     11731     11732     11728     11731     11733     11732     11731     11733
     11731     11733     11734     11731     11733     11735     11734     11733     11735
     11733     11735     11736     11733     11735     11737     11733     11735     11738
     11736     11735     11737     11736     11735     11738     11737     11735     11738
     11735     11738     11739     11735     11738     11740     11735     11738     11741
     11739     11738     11740     11739     11738     11741     11740     11738     11741
     11738     11741     11742     11738     11741     11743     11738     11741     11744
     11742     11741     11743     11742     11741     11744     11743     11741     11744
     11741     11744     11745     11741     11744     11746     11741     11744     11747
     11745     11744     11746     11745     11744     11747     11746     11744     11747
     11744     11747     11748     11744     11747     11749     11744     11747     11750
     11748     11747     11749     11748     11747     11750     11749     11747     11750
     11747     11750     11751     11747     11750     11752     11747     11750     11753
     11751     11750     11752     11751     11750     11753     11752     11750     11753
     11750     11753     11754     11750     11753     11755     11750     11753     11756
     11754     11753     11755     11754     11753     11756     11755     11753     11756
     11753     11756     11757     11753     11756     11758     11753     11756     11759
     11757     11756     11758     11757     11756     11759     11758     11756     11759
     11761     11760     11765     11761     11760     11769     11761     11760     11773
     11765     11760     11769     11765     11760     11773     11769     11760     11773
     11760     11761     11762     11760     11761     11763     11760     11761     11764
     11762     11761     11763     11762     11761     11764     11763     11761     11764
     11760     11765     11766     11760     11765     11767     11760     11765     11768
     11766     11765     11767     11766     11765     11768     11767     11765     11768
     11760     11769     11770     11760     11769     11771     11760     11769     11772
     11770     11769     11771     11770     11769     11772     11771     11769     11772
     11760     11773     11774     11760     11773     11775     11760     11773     11776
     11774     11773     11775     11774     11773     11776     11775     11773     11776
     11773     11776     11777     11773     11776     11778     11773     11776     11783
     11777     11776     11778     11777     11776     11783     11778     11776     11783
     11780     11779     11781     11780     11779     11782     11780     11779     11783
     11781     11779     11782     11781     11779     11783     11782     11779     11783
     11779     11782     11784     11776     11783     11779     11782     11784     11785
     11782     11784     11786     11782     11784     11789     11785     11784     11786
     11785     11784     11789     11786     11784     11789     11788     11787     11789
     11788     11787     11839     11789     11787     11839     11784     11789     11787
     11784     11789     11790     11784     11789     11791     11787     11789     11790
     11787     11789     11791     11790     11789     11791     11789     11791     11792
     11789     11791     11793     11789     11791     11795     11792     11791     11793
     11792     11791     11795     11793     11791     11795     11791     11793     11794
     11791     11795     11796     11791     11795     11797     11796     11795     11797
     11795     11797     11798     11795     11797     11799     11798     11797     11799
     11797     11799     11800     11797     11799     11801     11797     11799     11802
     11800     11799     11801     11800     11799     11802     11801     11799     11802
     11799     11802     11803     11799     11802     11804     11799     11802     11805
     11803     11802     11804     11803     11802     11805     11804     11802     11805
     11802     11805     11806     11802     11805     11807     11802     11805     11808
     11806     11805     11807     11806     11805     11808     11807     11805     11808
     11805     11808     11809     11805     11808     11810     11805     11808     11811
     11809     11808     11810     11809     11808     11811     11810     11808     11811
     11808     11811     11812     11808     11811     11813     11808     11811     11814
     11812     11811     11813     11812     11811     11814     11813     11811     11814
     11811     11814     11815     11811     11814     11816     11811     11814     11817
     11815     11814     11816     11815     11814     11817     11816     11814     11817
     11814     11817     11818     11814     11817     11819     11814     11817     11820
     11818     11817     11819     11818     11817     11820     11819     11817     11820
     11817     11820     11821     11817     11820     11822     11817     11820     11823
     11821     11820     11822     11821     11820     11823     11822     11820     11823
     11820     11823     11824     11820     11823     11825     11820     11823     11826
     11824     11823     11825     11824     11823     11826     11825     11823     11826
     11823     11826     11827     11823     11826     11828     11823     11826     11829
     11827     11826     11828     11827     11826     11829     11828     11826     11829
     11826     11829     11830     11826     11829     11831     11826     11829     11832
     11830     11829     11831     11830     11829     11832     11831     11829     11832
     11829     11832     11833     11829     11832     11834     11829     11832     11835
     11833     11832     11834     11833     11832     11835     11834     11832     11835
     11832     11835     11836     11832     11835     11837     11832     11835     11838
     11836     11835     11837     11836     11835     11838     11837     11835     11838
     11787     11839     11840     11787     11839     11841     11840     11839     11841
     11839     11841     11842     11839     11841     11843     11839     11841     11844
     11842     11841     11843     11842     11841     11844     11843     11841     11844
     11841     11844     11845     11841     11844     11846     11841     11844     11847
     11845     11844     11846     11845     11844     11847     11846     11844     11847
     11844     11847     11848     11844     11847     11849     11844     11847     11850
     11848     11847     11849     11848     11847     11850     11849     11847     11850
     11847     11850     11851     11847     11850     11852     11847     11850     11853
     11851     11850     11852     11851     11850     11853     11852     11850     11853
     11850     11853     11854     11850     11853     11855     11850     11853     11856
     11854     11853     11855     11854     11853     11856     11855     11853     11856
     11853     11856     11857     11853     11856     11858     11853     11856     11859
     11857     11856     11858     11857     11856     11859     11858     11856     11859
     11856     11859     11860     11856     11859     11861     11856     11859     11862
     11860     11859     11861     11860     11859     11862     11861     11859     11862
     11859     11862     11863     11859     11862     11864     11863     11862     11864
     11862     11864     11865     11862     11864     11866     11865     11864     11866
     11864     11866     11867     11864     11866     11868     11864     11866     11869
     11867     11866     11868     11867     11866     11869     11868     11866     11869
     11866     11869     11870     11866     11869     11871     11866     11869     11872
     11870     11869     11871     11870     11869     11872     11871     11869     11872
     11869     11872     11873     11869     11872     11874     11869     11872     11875
     11873     11872     11874     11873     11872     11875     11874     11872     11875
     11872     11875     11876     11872     11875     11877     11872     11875     11878
     11876     11875     11877     11876     11875     11878     11877     11875     11878
     11875     11878     11879     11875     11878     11880     11875     11878     11881
     11879     11878     11880     11879     11878     11881     11880     11878     11881
     11878     11881     11882     11878     11881     11883     11878     11881     11884
     11882     11881     11883     11882     11881     11884     11883     11881     11884
     11881     11884     11885     11881     11884     11886     11881     11884     11887
     11885     11884     11886     11885     11884     11887     11886     11884     11887
     11884     11887     11888     11884     11887     11889     11884     11887     11890
     11888     11887     11889     11888     11887     11890     11889     11887     11890
     19766     19765     19770     19766     19765     19774     19766     19765     19778
     19770     19765     19774     19770     19765     19778     19774     19765     19778
     19765     19766     19767     19765     19766     19768     19765     19766     19769
     19767     19766     19768     19767     19766     19769     19768     19766     19769
     19765     19770     19771     19765     19770     19772     19765     19770     19773
     19771     19770     19772     19771     19770     19773     19772     19770     19773
     19765     19774     19775     19765     19774     19776     19765     19774     19777
     19775     19774     19776     19775     19774     19777     19776     19774     19777
     19765     19778     19779     19765     19778     19780     19765     19778     19781
     19779     19778     19780     19779     19778     19781     19780     19778     19781
     19778     19781     19782     19778     19781     19783     19778     19781     19787
     19782     19781     19783     19782     19781     19787     19783     19781     19787
     19785     19784     19786     19785     19784     19787     19785     19784     19788
     19786     19784     19787     19786     19784     19788     19787     19784     19788
     19781     19787     19784     19784     19788     19789     19788     19789     19790
     19788     19789     19791     19788     19789     19792     19790     19789     19791
     19790     19789     19792     19791     19789     19792     19789     19792     19793
     19789     19792     19794     19789     19792     19800     19793     19792     19794
     19793     19792     19800     19794     19792     19800     19792     19794     19795
     19794     19795     19796     19794     19795     19797     19796     19795     19797
     19795     19797     19798     19795     19797     19799     19795     19797     19809
     19798     19797     19799     19798     19797     19809     19799     19797     19809
     19792     19800     19801     19792     19800     19802     19792     19800     19803
     19801     19800     19802     19801     19800     19803     19802     19800     19803
     19800     19803     19804     19803     19804     19805     19803     19804     19806
     19805     19804     19806     19804     19806     19807     19804     19806     19808
     19804     19806     19854     19807     19806     19808     19807     19806     19854
     19808     19806     19854     19797     19809     19810     19797     19809     19811
     19797     19809     19812     19810     19809     19811     19810     19809     19812
     19811     19809     19812     19809     19812     19813     19809     19812     19814
     19809     19812     19815     19813     19812     19814     19813     19812     19815
     19814     19812     19815     19812     19815     19816     19812     19815     19817
     19812     19815     19818     19816     19815     19817     19816     19815     19818
     19817     19815     19818     19815     19818     19819     19815     19818     19820
     19815     19818     19821     19819     19818     19820     19819     19818     19821
     19820     19818     19821     19818     19821     19822     19818     19821     19823
     19818     19821     19824     19822     19821     19823     19822     19821     19824
     19823     19821     19824     19821     19824     19825     19821     19824     19826
     19821     19824     19827     19825     19824     19826     19825     19824     19827
     19826     19824     19827     19824     19827     19828     19824     19827     19829
     19828     19827     19829     19827     19829     19830     19827     19829     19831
     19830     19829     19831     19829     19831     19832     19829     19831     19833
     19829     19831     19834     19832     19831     19833     19832     19831     19834
     19833     19831     19834     19831     19834     19835     19831     19834     19836
     19835     19834     19836     19834     19836     19837     19834     19836     19838
     19837     19836     19838     19836     19838     19839     19836     19838     19840
     19836     19838     19841     19839     19838     19840     19839     19838     19841
     19840     19838     19841     19838     19841     19842     19838     19841     19843
     19838     19841     19844     19842     19841     19843     19842     19841     19844
     19843     19841     19844     19841     19844     19845     19841     19844     19846
     19841     19844     19847     19845     19844     19846     19845     19844     19847
     19846     19844     19847     19844     19847     19848     19844     19847     19849
     19844     19847     19850     19848     19847     19849     19848     19847     19850
     19849     19847     19850     19847     19850     19851     19847     19850     19852
     19847     19850     19853     19851     19850     19852     19851     19850     19853
     19852     19850     19853     19806     19854     19855     19806     19854     19856
     19806     19854     19857     19855     19854     19856     19855     19854     19857
     19856     19854     19857     19854     19857     19858     19854     19857     19859
     19854     19857     19860     19858     19857     19859     19858     19857     19860
     19859     19857     19860     19857     19860     19861     19857     19860     19862
     19857     19860     19863     19861     19860     19862     19861     19860     19863
     19862     19860     19863     19860     19863     19864     19860     19863     19865
     19860     19863     19866     19864     19863     19865     19864     19863     19866
     19865     19863     19866     19863     19866     19867     19863     19866     19868
     19863     19866     19869     19867     19866     19868     19867     19866     19869
     19868     19866     19869     19866     19869     19870     19866     19869     19871
     19866     19869     19872     19870     19869     19871     19870     19869     19872
     19871     19869     19872     19869     19872     19873     19869     19872     19874
     19869     19872     19875     19873     19872     19874     19873     19872     19875
     19874     19872     19875     19872     19875     19876     19872     19875     19877
     19872     19875     19878     19876     19875     19877     19876     19875     19878
     19877     19875     19878     19875     19878     19879     19875     19878     19880
     19875     19878     19881     19879     19878     19880     19879     19878     19881
     19880     19878     19881     19878     19881     19882     19878     19881     19883
     19878     19881     19884     19882     19881     19883     19882     19881     19884
     19883     19881     19884     19881     19884     19885     19881     19884     19886
     19881     19884     19887     19885     19884     19886     19885     19884     19887
     19886     19884     19887     19884     19887     19888     19884     19887     19889
     19884     19887     19890     19888     19887     19889     19888     19887     19890
     19889     19887     19890     19887     19890     19891     19887     19890     19892
     19887     19890     19893     19891     19890     19892     19891     19890     19893
     19892     19890     19893     19890     19893     19894     19890     19893     19895
     19890     19893     19896     19894     19893     19895     19894     19893     19896
     19895     19893     19896     19893     19896     19897     19893     19896     19898
     19893     19896     19899     19897     19896     19898     19897     19896     19899
     19898     19896     19899     19896     19899     19900     19896     19899     19901
     19896     19899     19902     19900     19899     19901     19900     19899     19902
     19901     19899     19902     19904     19903     19908     19904     19903     19912
     19904     19903     19916     19908     19903     19912     19908     19903     19916
     19912     19903     19916     19903     19904     19905     19903     19904     19906
     19903     19904     19907     19905     19904     19906     19905     19904     19907
     19906     19904     19907     19903     19908     19909     19903     19908     19910
     19903     19908     19911     19909     19908     19910     19909     19908     19911
     19910     19908     19911     19903     19912     19913     19903     19912     19914
     19903     19912     19915     19913     19912     19914     19913     19912     19915
     19914     19912     19915     19903     19916     19917     19903     19916     19918
     19903     19916     19919     19917     19916     19918     19917     19916     19919
     19918     19916     19919     19916     19919     19920     19916     19919     19921
     19916     19919     19925     19920     19919     19921     19920     19919     19925
     19921     19919     19925     19923     19922     19924     19923     19922     19925
     19923     19922     19926     19924     19922     19925     19924     19922     19926
     19925     19922     19926     19919     19925     19922     19922     19926     19927
     19926     19927     19928     19926     19927     19929     19926     19927     19930
     19928     19927     19929     19928     19927     19930     19929     19927     19930
     19927     19930     19931     19927     19930     19932     19927     19930     19938
     19931     19930     19932     19931     19930     19938     19932     19930     19938
     19930     19932     19933     19932     19933     19934     19932     19933     19935
     19934     19933     19935     19933     19935     19936     19933     19935     19937
     19933     19935     19947     19936     19935     19937     19936     19935     19947
     19937     19935     19947     19930     19938     19939     19930     19938     19940
     19930     19938     19941     19939     19938     19940     19939     19938     19941
     19940     19938     19941     19938     19941     19942     19941     19942     19943
     19941     19942     19944     19943     19942     19944     19942     19944     19945
     19942     19944     19946     19942     19944     19992     19945     19944     19946
     19945     19944     19992     19946     19944     19992     19935     19947     19948
     19935     19947     19949     19935     19947     19950     19948     19947     19949
     19948     19947     19950     19949     19947     19950     19947     19950     19951
     19947     19950     19952     19947     19950     19953     19951     19950     19952
     19951     19950     19953     19952     19950     19953     19950     19953     19954
     19950     19953     19955     19950     19953     19956     19954     19953     19955
     19954     19953     19956     19955     19953     19956     19953     19956     19957
     19953     19956     19958     19953     19956     19959     19957     19956     19958
     19957     19956     19959     19958     19956     19959     19956     19959     19960
     19956     19959     19961     19956     19959     19962     19960     19959     19961
     19960     19959     19962     19961     19959     19962     19959     19962     19963
     19959     19962     19964     19959     19962     19965     19963     19962     19964
     19963     19962     19965     19964     19962     19965     19962     19965     19966
     19962     19965     19967     19966     19965     19967     19965     19967     19968
     19965     19967     19969     19968     19967     19969     19967     19969     19970
     19967     19969     19971     19967     19969     19972     19970     19969     19971
     19970     19969     19972     19971     19969     19972     19969     19972     19973
     19969     19972     19974     19973     19972     19974     19972     19974     19975
     19972     19974     19976     19975     19974     19976     19974     19976     19977
     19974     19976     19978     19974     19976     19979     19977     19976     19978
     19977     19976     19979     19978     19976     19979     19976     19979     19980
     19976     19979     19981     19976     19979     19982     19980     19979     19981
     19980     19979     19982     19981     19979     19982     19979     19982     19983
     19979     19982     19984     19979     19982     19985     19983     19982     19984
     19983     19982     19985     19984     19982     19985     19982     19985     19986
     19982     19985     19987     19982     19985     19988     19986     19985     19987
     19986     19985     19988     19987     19985     19988     19985     19988     19989
     19985     19988     19990     19985     19988     19991     19989     19988     19990
     19989     19988     19991     19990     19988     19991     19944     19992     19993
     19944     19992     19994     19944     19992     19995     19993     19992     19994
     19993     19992     19995     19994     19992     19995     19992     19995     19996
     19992     19995     19997     19992     19995     19998     19996     19995     19997
     19996     19995     19998     19997     19995     19998     19995     19998     19999
     19995     19998     20000     19995     19998     20001     19999     19998     20000
     19999     19998     20001     20000     19998     20001     19998     20001     20002
     19998     20001     20003     19998     20001     20004     20002     20001     20003
     20002     20001     20004     20003     20001     20004     20001     20004     20005
     20001     20004     20006     20001     20004     20007     20005     20004     20006
     20005     20004     20007     20006     20004     20007     20004     20007     20008
     20004     20007     20009     20004     20007     20010     20008     20007     20009
     20008     20007     20010     20009     20007     20010     20007     20010     20011
     20007     20010     20012     20007     20010     20013     20011     20010     20012
     20011     20010     20013     20012     20010     20013     20010     20013     20014
     20010     20013     20015     20010     20013     20016     20014     20013     20015
     20014     20013     20016     20015     20013     20016     20013     20016     20017
     20013     20016     20018     20013     20016     20019     20017     20016     20018
     20017     20016     20019     20018     20016     20019     20016     20019     20020
     20016     20019     20021     20016     20019     20022     20020     20019     20021
     20020     20019     20022     20021     20019     20022     20019     20022     20023
     20019     20022     20024     20019     20022     20025     20023     20022     20024
     20023     20022     20025     20024     20022     20025     20022     20025     20026
     20022     20025     20027     20022     20025     20028     20026     20025     20027
     20026     20025     20028     20027     20025     20028     20025     20028     20029
     20025     20028     20030     20025     20028     20031     20029     20028     20030
     20029     20028     20031     20030     20028     20031     20028     20031     20032
     20028     20031     20033     20028     20031     20034     20032     20031     20033
     20032     20031     20034     20033     20031     20034     20031     20034     20035
     20031     20034     20036     20031     20034     20037     20035     20034     20036
     20035     20034     20037     20036     20034     20037     20034     20037     20038
     20034     20037     20039     20034     20037     20040     20038     20037     20039
     20038     20037     20040     20039     20037     20040      3994      3993      3995
      3994      3993      3997      3994      3993      4039      3995      3993      3997
      3995      3993      4039      3997      3993      4039      3993      3995      3996
      3993      3997      3998      3993      3997      3999      3993      3997      4000
      3998      3997      3999      3998      3997      4000      3999      3997      4000
      3997      4000      4001      3997      4000      4031      4001      4000      4031
      4000      4001      4002      4000      4001      4003      4002      4001      4003
      4001      4003      4004      4001      4003      4005      4001      4003      4006
      4004      4003      4005      4004      4003      4006      4005      4003      4006
      4003      4006      4007      4003      4006      4008      4003      4006      4029
      4007      4006      4008      4007      4006      4029      4008      4006      4029
      4006      4008      4009      4006      4008      4010      4006      4008      4018
      4009      4008      4010      4009      4008      4018      4010      4008      4018
      4008      4010      4011      4008      4010      4012      4008      4010      4013
      4011      4010      4012      4011      4010      4013      4012      4010      4013
      4010      4013      4014      4010      4013      4015      4010      4013      4016
      4014      4013      4015      4014      4013      4016      4015      4013      4016
      4013      4016      4017      4013      4016      4018      4013      4016      4042
      4017      4016      4018      4017      4016      4042      4018      4016      4042
      4008      4018      4016      4008      4018      4019      4008      4018      4023
      4016      4018      4019      4016      4018      4023      4019      4018      4023
      4018      4019      4020      4018      4019      4021      4018      4019      4022
      4020      4019      4021      4020      4019      4022      4021      4019      4022
      4018      4023      4024      4018      4023      4025      4018      4023      4026
      4024      4023      4025      4024      4023      4026      4025      4023      4026
      4023      4026      4027      4023      4026      4028      4023      4026      4029
      4027      4026      4028      4027      4026      4029      4028      4026      4029
      4006      4029      4026      4006      4029      4030      4006      4029      4031
      4026      4029      4030      4026      4029      4031      4030      4029      4031
      4000      4031      4029      4000      4031      4032      4000      4031      4036
      4029      4031      4032      4029      4031      4036      4032      4031      4036
      4031      4032      4033      4031      4032      4034      4031      4032      4035
      4033      4032      4034      4033      4032      4035      4034      4032      4035
      4031      4036      4037      4031      4036      4038      4031      4036      4039
      4037      4036      4038      4037      4036      4039      4038      4036      4039
      3993      4039      4036      3993      4039      4040      3993      4039      4041
      4036      4039      4040      4036      4039      4041      4040      4039      4041
      4016      4042      4043      4016      4042      4044      4016      4042      4048
      4043      4042      4044      4043      4042      4048      4044      4042      4048
      4042      4044      4045      4042      4044      4046      4042      4044      4047
      4045      4044      4046      4045      4044      4047      4046      4044      4047
      4042      4048      4049      4042      4048      4050      4042      4048      4051
      4049      4048      4050      4049      4048      4051      4050      4048      4051
      4048      4051      4052      4048      4051      4053      4048      4051      4054
      4052      4051      4053      4052      4051      4054      4053      4051      4054
      4051      4054      4055      4051      4054      4056      4051      4054      4057
      4055      4054      4056      4055      4054      4057      4056      4054      4057
      4054      4057      4058      4054      4057      4059      4054      4057      4063
      4058      4057      4059      4058      4057      4063      4059      4057      4063
      4057      4059      4060      4057      4059      4061      4057      4059      4062
      4060      4059      4061      4060      4059      4062      4061      4059      4062
      4057      4063      4064      4057      4063      4065      4057      4063      4066
      4064      4063      4065      4064      4063      4066      4065      4063      4066
      4068      4067      4069      4068      4067      4071      4068      4067      4113
      4069      4067      4071      4069      4067      4113      4071      4067      4113
      4067      4069      4070      4067      4071      4072      4067      4071      4073
      4067      4071      4074      4072      4071      4073      4072      4071      4074
      4073      4071      4074      4071      4074      4075      4071      4074      4105
      4075      4074      4105      4074      4075      4076      4074      4075      4077
      4076      4075      4077      4075      4077      4078      4075      4077      4079
      4075      4077      4080      4078      4077      4079      4078      4077      4080
      4079      4077      4080      4077      4080      4081      4077      4080      4082
      4077      4080      4103      4081      4080      4082      4081      4080      4103
      4082      4080      4103      4080      4082      4083      4080      4082      4084
      4080      4082      4092      4083      4082      4084      4083      4082      4092
      4084      4082      4092      4082      4084      4085      4082      4084      4086
      4082      4084      4087      4085      4084      4086      4085      4084      4087
      4086      4084      4087      4084      4087      4088      4084      4087      4089
      4084      4087      4090      4088      4087      4089      4088      4087      4090
      4089      4087      4090      4087      4090      4091      4087      4090      4092
      4087      4090      4116      4091      4090      4092      4091      4090      4116
      4092      4090      4116      4082      4092      4090      4082      4092      4093
      4082      4092      4097      4090      4092      4093      4090      4092      4097
      4093      4092      4097      4092      4093      4094      4092      4093      4095
      4092      4093      4096      4094      4093      4095      4094      4093      4096
      4095      4093      4096      4092      4097      4098      4092      4097      4099
      4092      4097      4100      4098      4097      4099      4098      4097      4100
      4099      4097      4100      4097      4100      4101      4097      4100      4102
      4097      4100      4103      4101      4100      4102      4101      4100      4103
      4102      4100      4103      4080      4103      4100      4080      4103      4104
      4080      4103      4105      4100      4103      4104      4100      4103      4105
      4104      4103      4105      4074      4105      4103      4074      4105      4106
      4074      4105      4110      4103      4105      4106      4103      4105      4110
      4106      4105      4110      4105      4106      4107      4105      4106      4108
      4105      4106      4109      4107      4106      4108      4107      4106      4109
      4108      4106      4109      4105      4110      4111      4105      4110      4112
      4105      4110      4113      4111      4110      4112      4111      4110      4113
      4112      4110      4113      4067      4113      4110      4067      4113      4114
      4067      4113      4115      4110      4113      4114      4110      4113      4115
      4114      4113      4115      4090      4116      4117      4090      4116      4118
      4090      4116      4122      4117      4116      4118      4117      4116      4122
      4118      4116      4122      4116      4118      4119      4116      4118      4120
      4116      4118      4121      4119      4118      4120      4119      4118      4121
      4120      4118      4121      4116      4122      4123      4116      4122      4124
      4116      4122      4125      4123      4122      4124      4123      4122      4125
      4124      4122      4125      4122      4125      4126      4122      4125      4127
      4122      4125      4128      4126      4125      4127      4126      4125      4128
      4127      4125      4128      4125      4128      4129      4125      4128      4130
      4125      4128      4131      4129      4128      4130      4129      4128      4131
      4130      4128      4131      4128      4131      4132      4128      4131      4133
      4128      4131      4137      4132      4131      4133      4132      4131      4137
      4133      4131      4137      4131      4133      4134      4131      4133      4135
      4131      4133      4136      4134      4133      4135      4134      4133      4136
      4135      4133      4136      4131      4137      4138      4131      4137      4139
      4131      4137      4140      4138      4137      4139      4138      4137      4140
      4139      4137      4140      4142      4141      4143      4142      4141      4145
      4142      4141      4187      4143      4141      4145      4143      4141      4187
      4145      4141      4187      4141      4143      4144      4141      4145      4146
      4141      4145      4147      4141      4145      4148      4146      4145      4147
      4146      4145      4148      4147      4145      4148      4145      4148      4149
      4145      4148      4179      4149      4148      4179      4148      4149      4150
      4148      4149      4151      4150      4149      4151      4149      4151      4152
      4149      4151      4153      4149      4151      4154      4152      4151      4153
      4152      4151      4154      4153      4151      4154      4151      4154      4155
      4151      4154      4156      4151      4154      4177      4155      4154      4156
      4155      4154      4177      4156      4154      4177      4154      4156      4157
      4154      4156      4158      4154      4156      4166      4157      4156      4158
      4157      4156      4166      4158      4156      4166      4156      4158      4159
      4156      4158      4160      4156      4158      4161      4159      4158      4160
      4159      4158      4161      4160      4158      4161      4158      4161      4162
      4158      4161      4163      4158      4161      4164      4162      4161      4163
      4162      4161      4164      4163      4161      4164      4161      4164      4165
      4161      4164      4166      4161      4164      4190      4165      4164      4166
      4165      4164      4190      4166      4164      4190      4156      4166      4164
      4156      4166      4167      4156      4166      4171      4164      4166      4167
      4164      4166      4171      4167      4166      4171      4166      4167      4168
      4166      4167      4169      4166      4167      4170      4168      4167      4169
      4168      4167      4170      4169      4167      4170      4166      4171      4172
      4166      4171      4173      4166      4171      4174      4172      4171      4173
      4172      4171      4174      4173      4171      4174      4171      4174      4175
      4171      4174      4176      4171      4174      4177      4175      4174      4176
      4175      4174      4177      4176      4174      4177      4154      4177      4174
      4154      4177      4178      4154      4177      4179      4174      4177      4178
      4174      4177      4179      4178      4177      4179      4148      4179      4177
      4148      4179      4180      4148      4179      4184      4177      4179      4180
      4177      4179      4184      4180      4179      4184      4179      4180      4181
      4179      4180      4182      4179      4180      4183      4181      4180      4182
      4181      4180      4183      4182      4180      4183      4179      4184      4185
      4179      4184      4186      4179      4184      4187      4185      4184      4186
      4185      4184      4187      4186      4184      4187      4141      4187      4184
      4141      4187      4188      4141      4187      4189      4184      4187      4188
      4184      4187      4189      4188      4187      4189      4164      4190      4191
      4164      4190      4192      4164      4190      4196      4191      4190      4192
      4191      4190      4196      4192      4190      4196      4190      4192      4193
      4190      4192      4194      4190      4192      4195      4193      4192      4194
      4193      4192      4195      4194      4192      4195      4190      4196      4197
      4190      4196      4198      4190      4196      4199      4197      4196      4198
      4197      4196      4199      4198      4196      4199      4196      4199      4200
      4196      4199      4201      4196      4199      4202      4200      4199      4201
      4200      4199      4202      4201      4199      4202      4199      4202      4203
      4199      4202      4204      4199      4202      4205      4203      4202      4204
      4203      4202      4205      4204      4202      4205      4202      4205      4206
      4202      4205      4207      4202      4205      4211      4206      4205      4207
      4206      4205      4211      4207      4205      4211      4205      4207      4208
      4205      4207      4209      4205      4207      4210      4208      4207      4209
      4208      4207      4210      4209      4207      4210      4205      4211      4212
      4205      4211      4213      4205      4211      4214      4212      4211      4213
      4212      4211      4214      4213      4211      4214      4216      4215      4217
      4216      4215      4219      4216      4215      4261      4217      4215      4219
      4217      4215      4261      4219      4215      4261      4215      4217      4218
      4215      4219      4220      4215      4219      4221      4215      4219      4222
      4220      4219      4221      4220      4219      4222      4221      4219      4222
      4219      4222      4223      4219      4222      4253      4223      4222      4253
      4222      4223      4224      4222      4223      4225      4224      4223      4225
      4223      4225      4226      4223      4225      4227      4223      4225      4228
      4226      4225      4227      4226      4225      4228      4227      4225      4228
      4225      4228      4229      4225      4228      4230      4225      4228      4251
      4229      4228      4230      4229      4228      4251      4230      4228      4251
      4228      4230      4231      4228      4230      4232      4228      4230      4240
      4231      4230      4232      4231      4230      4240      4232      4230      4240
      4230      4232      4233      4230      4232      4234      4230      4232      4235
      4233      4232      4234      4233      4232      4235      4234      4232      4235
      4232      4235      4236      4232      4235      4237      4232      4235      4238
      4236      4235      4237      4236      4235      4238      4237      4235      4238
      4235      4238      4239      4235      4238      4240      4235      4238      4264
      4239      4238      4240      4239      4238      4264      4240      4238      4264
      4230      4240      4238      4230      4240      4241      4230      4240      4245
      4238      4240      4241      4238      4240      4245      4241      4240      4245
      4240      4241      4242      4240      4241      4243      4240      4241      4244
      4242      4241      4243      4242      4241      4244      4243      4241      4244
      4240      4245      4246      4240      4245      4247      4240      4245      4248
      4246      4245      4247      4246      4245      4248      4247      4245      4248
      4245      4248      4249      4245      4248      4250      4245      4248      4251
      4249      4248      4250      4249      4248      4251      4250      4248      4251
      4228      4251      4248      4228      4251      4252      4228      4251      4253
      4248      4251      4252      4248      4251      4253      4252      4251      4253
      4222      4253      4251      4222      4253      4254      4222      4253      4258
      4251      4253      4254      4251      4253      4258      4254      4253      4258
      4253      4254      4255      4253      4254      4256      4253      4254      4257
      4255      4254      4256      4255      4254      4257      4256      4254      4257
      4253      4258      4259      4253      4258      4260      4253      4258      4261
      4259      4258      4260      4259      4258      4261      4260      4258      4261
      4215      4261      4258      4215      4261      4262      4215      4261      4263
      4258      4261      4262      4258      4261      4263      4262      4261      4263
      4238      4264      4265      4238      4264      4266      4238      4264      4270
      4265      4264      4266      4265      4264      4270      4266      4264      4270
      4264      4266      4267      4264      4266      4268      4264      4266      4269
      4267      4266      4268      4267      4266      4269      4268      4266      4269
      4264      4270      4271      4264      4270      4272      4264      4270      4273
      4271      4270      4272      4271      4270      4273      4272      4270      4273
      4270      4273      4274      4270      4273      4275      4270      4273      4276
      4274      4273      4275      4274      4273      4276      4275      4273      4276
      4273      4276      4277      4273      4276      4278      4273      4276      4279
      4277      4276      4278      4277      4276      4279      4278      4276      4279
      4276      4279      4280      4276      4279      4281      4276      4279      4285
      4280      4279      4281      4280      4279      4285      4281      4279      4285
      4279      4281      4282      4279      4281      4283      4279      4281      4284
      4282      4281      4283      4282      4281      4284      4283      4281      4284
      4279      4285      4286      4279      4285      4287      4279      4285      4288
      4286      4285      4287      4286      4285      4288      4287      4285      4288
     21682     21681     21683     21682     21681     21685     21682     21681     21701
     21683     21681     21685     21683     21681     21701     21685     21681     21701
     21681     21683     21684     21681     21685     21686     21681     21685     21687
     21681     21685     21689     21686     21685     21687     21686     21685     21689
     21687     21685     21689     21685     21687     21688     21685     21689     21690
     21685     21689     21691     21685     21689     21693     21690     21689     21691
     21690     21689     21693     21691     21689     21693     21689     21691     21692
     21689     21693     21694     21689     21693     21695     21689     21693     21697
     21694     21693     21695     21694     21693     21697     21695     21693     21697
     21693     21695     21696     21693     21697     21698     21693     21697     21699
     21693     21697     21701     21698     21697     21699     21698     21697     21701
     21699     21697     21701     21697     21699     21700     21681     21701     21697
     21681     21701     21702     21681     21701     21706     21697     21701     21702
     21697     21701     21706     21702     21701     21706     21704     21703     21705
     21704     21703     21706     21704     21703     21707     21705     21703     21706
     21705     21703     21707     21706     21703     21707     21701     21706     21703
     21703     21707     21708     21707     21708     21709     21707     21708     21710
     21707     21708     21711     21709     21708     21710     21709     21708     21711
     21710     21708     21711     21708     21711     21712     21708     21711     21713
     21708     21711     21719     21712     21711     21713     21712     21711     21719
     21713     21711     21719     21711     21713     21714     21713     21714     21715
     21713     21714     21716     21715     21714     21716     21714     21716     21717
     21714     21716     21718     21714     21716     21728     21717     21716     21718
     21717     21716     21728     21718     21716     21728     21711     21719     21720
     21711     21719     21721     21711     21719     21722     21720     21719     21721
     21720     21719     21722     21721     21719     21722     21719     21722     21723
     21722     21723     21724     21722     21723     21725     21724     21723     21725
     21723     21725     21726     21723     21725     21727     21723     21725     21775
     21726     21725     21727     21726     21725     21775     21727     21725     21775
     21716     21728     21729     21716     21728     21730     21716     21728     21731
     21729     21728     21730     21729     21728     21731     21730     21728     21731
     21728     21731     21732     21728     21731     21733     21728     21731     21734
     21732     21731     21733     21732     21731     21734     21733     21731     21734
     21731     21734     21735     21731     21734     21736     21735     21734     21736
     21734     21736     21737     21734     21736     21738     21737     21736     21738
     21736     21738     21739     21736     21738     21740     21736     21738     21741
     21739     21738     21740     21739     21738     21741     21740     21738     21741
     21738     21741     21742     21738     21741     21743     21742     21741     21743
     21741     21743     21744     21741     21743     21745     21744     21743     21745
     21743     21745     21746     21743     21745     21747     21743     21745     21748
     21746     21745     21747     21746     21745     21748     21747     21745     21748
     21745     21748     21749     21745     21748     21750     21749     21748     21750
     21748     21750     21751     21748     21750     21752     21751     21750     21752
     21750     21752     21753     21750     21752     21754     21750     21752     21755
     21753     21752     21754     21753     21752     21755     21754     21752     21755
     21752     21755     21756     21752     21755     21757     21756     21755     21757
     21755     21757     21758     21755     21757     21759     21758     21757     21759
     21757     21759     21760     21757     21759     21761     21757     21759     21762
     21760     21759     21761     21760     21759     21762     21761     21759     21762
     21759     21762     21763     21759     21762     21764     21759     21762     21765
     21763     21762     21764     21763     21762     21765     21764     21762     21765
     21762     21765     21766     21762     21765     21767     21762     21765     21768
     21766     21765     21767     21766     21765     21768     21767     21765     21768
     21765     21768     21769     21765     21768     21770     21765     21768     21771
     21769     21768     21770     21769     21768     21771     21770     21768     21771
     21768     21771     21772     21768     21771     21773     21768     21771     21774
     21772     21771     21773     21772     21771     21774     21773     21771     21774
     21725     21775     21776     21725     21775     21777     21725     21775     21778
     21776     21775     21777     21776     21775     21778     21777     21775     21778
     21775     21778     21779     21775     21778     21780     21775     21778     21781
     21779     21778     21780     21779     21778     21781     21780     21778     21781
     21778     21781     21782     21778     21781     21783     21778     21781     21784
     21782     21781     21783     21782     21781     21784     21783     21781     21784
     21781     21784     21785     21781     21784     21786     21781     21784     21787
     21785     21784     21786     21785     21784     21787     21786     21784     21787
     21784     21787     21788     21784     21787     21789     21784     21787     21790
     21788     21787     21789     21788     21787     21790     21789     21787     21790
     21787     21790     21791     21787     21790     21792     21787     21790     21793
     21791     21790     21792     21791     21790     21793     21792     21790     21793
     21790     21793     21794     21790     21793     21795     21790     21793     21796
     21794     21793     21795     21794     21793     21796     21795     21793     21796
     21793     21796     21797     21793     21796     21798     21793     21796     21799
     21797     21796     21798     21797     21796     21799     21798     21796     21799
     21796     21799     21800     21796     21799     21801     21796     21799     21802
     21800     21799     21801     21800     21799     21802     21801     21799     21802
     21799     21802     21803     21799     21802     21804     21799     21802     21805
     21803     21802     21804     21803     21802     21805     21804     21802     21805
     21802     21805     21806     21802     21805     21807     21802     21805     21808
     21806     21805     21807     21806     21805     21808     21807     21805     21808
     21805     21808     21809     21805     21808     21810     21805     21808     21811
     21809     21808     21810     21809     21808     21811     21810     21808     21811
     21808     21811     21812     21808     21811     21813     21808     21811     21814
     21812     21811     21813     21812     21811     21814     21813     21811     21814
     21811     21814     21815     21811     21814     21816     21811     21814     21817
     21815     21814     21816     21815     21814     21817     21816     21814     21817
     21814     21817     21818     21814     21817     21819     21814     21817     21820
     21818     21817     21819     21818     21817     21820     21819     21817     21820
     21817     21820     21821     21817     21820     21822     21817     21820     21823
     21821     21820     21822     21821     21820     21823     21822     21820     21823
      4290      4289      4291      4290      4289      4293      4290      4289      4335
      4291      4289      4293      4291      4289      4335      4293      4289      4335
      4289      4291      4292      4289      4293      4294      4289      4293      4295
      4289      4293      4296      4294      4293      4295      4294      4293      4296
      4295      4293      4296      4293      4296      4297      4293      4296      4327
      4297      4296      4327      4296      4297      4298      4296      4297      4299
      4298      4297      4299      4297      4299      4300      4297      4299      4301
      4297      4299      4302      4300      4299      4301      4300      4299      4302
      4301      4299      4302      4299      4302      4303      4299      4302      4304
      4299      4302      4325      4303      4302      4304      4303      4302      4325
      4304      4302      4325      4302      4304      4305      4302      4304      4306
      4302      4304      4314      4305      4304      4306      4305      4304      4314
      4306      4304      4314      4304      4306      4307      4304      4306      4308
      4304      4306      4309      4307      4306      4308      4307      4306      4309
      4308      4306      4309      4306      4309      4310      4306      4309      4311
      4306      4309      4312      4310      4309      4311      4310      4309      4312
      4311      4309      4312      4309      4312      4313      4309      4312      4314
      4309      4312      4338      4313      4312      4314      4313      4312      4338
      4314      4312      4338      4304      4314      4312      4304      4314      4315
      4304      4314      4319      4312      4314      4315      4312      4314      4319
      4315      4314      4319      4314      4315      4316      4314      4315      4317
      4314      4315      4318      4316      4315      4317      4316      4315      4318
      4317      4315      4318      4314      4319      4320      4314      4319      4321
      4314      4319      4322      4320      4319      4321      4320      4319      4322
      4321      4319      4322      4319      4322      4323      4319      4322      4324
      4319      4322      4325      4323      4322      4324      4323      4322      4325
      4324      4322      4325      4302      4325      4322      4302      4325      4326
      4302      4325      4327      4322      4325      4326      4322      4325      4327
      4326      4325      4327      4296      4327      4325      4296      4327      4328
      4296      4327      4332      4325      4327      4328      4325      4327      4332
      4328      4327      4332      4327      4328      4329      4327      4328      4330
      4327      4328      4331      4329      4328      4330      4329      4328      4331
      4330      4328      4331      4327      4332      4333      4327      4332      4334
      4327      4332      4335      4333      4332      4334      4333      4332      4335
      4334      4332      4335      4289      4335      4332      4289      4335      4336
      4289      4335      4337      4332      4335      4336      4332      4335      4337
      4336      4335      4337      4312      4338      4339      4312      4338      4340
      4312      4338      4344      4339      4338      4340      4339      4338      4344
      4340      4338      4344      4338      4340      4341      4338      4340      4342
      4338      4340      4343      4341      4340      4342      4341      4340      4343
      4342      4340      4343      4338      4344      4345      4338      4344      4346
      4338      4344      4347      4345      4344      4346      4345      4344      4347
      4346      4344      4347      4344      4347      4348      4344      4347      4349
      4344      4347      4350      4348      4347      4349      4348      4347      4350
      4349      4347      4350      4347      4350      4351      4347      4350      4352
      4347      4350      4353      4351      4350      4352      4351      4350      4353
      4352      4350      4353      4350      4353      4354      4350      4353      4355
      4350      4353      4359      4354      4353      4355      4354      4353      4359
      4355      4353      4359      4353      4355      4356      4353      4355      4357
      4353      4355      4358      4356      4355      4357      4356      4355      4358
      4357      4355      4358      4353      4359      4360      4353      4359      4361
      4353      4359      4362      4360      4359      4361      4360      4359      4362
      4361      4359      4362     11892     11891     11896     11892     11891     11900
     11892     11891     11904     11896     11891     11900     11896     11891     11904
     11900     11891     11904     11891     11892     11893     11891     11892     11894
     11891     11892     11895     11893     11892     11894     11893     11892     11895
     11894     11892     11895     11891     11896     11897     11891     11896     11898
     11891     11896     11899     11897     11896     11898     11897     11896     11899
     11898     11896     11899     11891     11900     11901     11891     11900     11902
     11891     11900     11903     11901     11900     11902     11901     11900     11903
     11902     11900     11903     11891     11904     11905     11891     11904     11906
     11891     11904     11907     11905     11904     11906     11905     11904     11907
     11906     11904     11907     11904     11907     11908     11904     11907     11909
     11904     11907     11914     11908     11907     11909     11908     11907     11914
     11909     11907     11914     11911     11910     11912     11911     11910     11913
     11911     11910     11914     11912     11910     11913     11912     11910     11914
     11913     11910     11914     11910     11913     11915     11907     11914     11910
     11913     11915     11916     11913     11915     11917     11913     11915     11920
     11916     11915     11917     11916     11915     11920     11917     11915     11920
     11919     11918     11920     11919     11918     11970     11920     11918     11970
     11915     11920     11918     11915     11920     11921     11915     11920     11922
     11918     11920     11921     11918     11920     11922     11921     11920     11922
     11920     11922     11923     11920     11922     11924     11920     11922     11926
     11923     11922     11924     11923     11922     11926     11924     11922     11926
     11922     11924     11925     11922     11926     11927     11922     11926     11928
     11927     11926     11928     11926     11928     11929     11926     11928     11930
     11929     11928     11930     11928     11930     11931     11928     11930     11932
     11928     11930     11933     11931     11930     11932     11931     11930     11933
     11932     11930     11933     11930     11933     11934     11930     11933     11935
     11930     11933     11936     11934     11933     11935     11934     11933     11936
     11935     11933     11936     11933     11936     11937     11933     11936     11938
     11933     11936     11939     11937     11936     11938     11937     11936     11939
     11938     11936     11939     11936     11939     11940     11936     11939     11941
     11936     11939     11942     11940     11939     11941     11940     11939     11942
     11941     11939     11942     11939     11942     11943     11939     11942     11944
     11939     11942     11945     11943     11942     11944     11943     11942     11945
     11944     11942     11945     11942     11945     11946     11942     11945     11947
     11942     11945     11948     11946     11945     11947     11946     11945     11948
     11947     11945     11948     11945     11948     11949     11945     11948     11950
     11945     11948     11951     11949     11948     11950     11949     11948     11951
     11950     11948     11951     11948     11951     11952     11948     11951     11953
     11948     11951     11954     11952     11951     11953     11952     11951     11954
     11953     11951     11954     11951     11954     11955     11951     11954     11956
     11951     11954     11957     11955     11954     11956     11955     11954     11957
     11956     11954     11957     11954     11957     11958     11954     11957     11959
     11954     11957     11960     11958     11957     11959     11958     11957     11960
     11959     11957     11960     11957     11960     11961     11957     11960     11962
     11957     11960     11963     11961     11960     11962     11961     11960     11963
     11962     11960     11963     11960     11963     11964     11960     11963     11965
     11960     11963     11966     11964     11963     11965     11964     11963     11966
     11965     11963     11966     11963     11966     11967     11963     11966     11968
     11963     11966     11969     11967     11966     11968     11967     11966     11969
     11968     11966     11969     11918     11970     11971     11918     11970     11972
     11971     11970     11972     11970     11972     11973     11970     11972     11974
     11970     11972     11975     11973     11972     11974     11973     11972     11975
     11974     11972     11975     11972     11975     11976     11972     11975     11977
     11972     11975     11978     11976     11975     11977     11976     11975     11978
     11977     11975     11978     11975     11978     11979     11975     11978     11980
     11975     11978     11981     11979     11978     11980     11979     11978     11981
     11980     11978     11981     11978     11981     11982     11978     11981     11983
     11978     11981     11984     11982     11981     11983     11982     11981     11984
     11983     11981     11984     11981     11984     11985     11981     11984     11986
     11981     11984     11987     11985     11984     11986     11985     11984     11987
     11986     11984     11987     11984     11987     11988     11984     11987     11989
     11984     11987     11990     11988     11987     11989     11988     11987     11990
     11989     11987     11990     11987     11990     11991     11987     11990     11992
     11987     11990     11993     11991     11990     11992     11991     11990     11993
     11992     11990     11993     11990     11993     11994     11990     11993     11995
     11994     11993     11995     11993     11995     11996     11993     11995     11997
     11996     11995     11997     11995     11997     11998     11995     11997     11999
     11995     11997     12000     11998     11997     11999     11998     11997     12000
     11999     11997     12000     11997     12000     12001     11997     12000     12002
     11997     12000     12003     12001     12000     12002     12001     12000     12003
     12002     12000     12003     12000     12003     12004     12000     12003     12005
     12000     12003     12006     12004     12003     12005     12004     12003     12006
     12005     12003     12006     12003     12006     12007     12003     12006     12008
     12003     12006     12009     12007     12006     12008     12007     12006     12009
     12008     12006     12009     12006     12009     12010     12006     12009     12011
     12006     12009     12012     12010     12009     12011     12010     12009     12012
     12011     12009     12012     12009     12012     12013     12009     12012     12014
     12009     12012     12015     12013     12012     12014     12013     12012     12015
     12014     12012     12015     12012     12015     12016     12012     12015     12017
     12012     12015     12018     12016     12015     12017     12016     12015     12018
     12017     12015     12018     12015     12018     12019     12015     12018     12020
     12015     12018     12021     12019     12018     12020     12019     12018     12021
     12020     12018     12021       800       799       801       800       799       802
       800       799       803       801       799       802       801       799       803
       802       799       803       799       803       804       799       803       805
       799       803       808       804       803       805       804       803       808
       805       803       808       803       805       806       803       805       807
       806       805       807       803       808       809       803       808       810
       803       808       814       809       808       810       809       808       814
       810       808       814       812       811       813       812       811       814
       812       811       815       813       811       814       813       811       815
       814       811       815       808       814       811       811       815       816
       815       816       817       815       816       818       815       816       819
       817       816       818       817       816       819       818       816       819
       816       819       820       816       819       821       816       819       827
       820       819       821       820       819       827       821       819       827
       819       821       822       821       822       823       821       822       824
       823       822       824       822       824       825       822       824       826
       822       824       836       825       824       826       825       824       836
       826       824       836       819       827       828       819       827       829
       819       827       830       828       827       829       828       827       830
       829       827       830       827       830       831       830       831       832
       830       831       833       832       831       833       831       833       834
       831       833       835       831       833       883       834       833       835
       834       833       883       835       833       883       824       836       837
       824       836       838       824       836       839       837       836       838
       837       836       839       838       836       839       836       839       840
       836       839       841       836       839       842       840       839       841
       840       839       842       841       839       842       839       842       843
       839       842       844       843       842       844       842       844       845
       842       844       846       845       844       846       844       846       847
       844       846       848       844       846       849       847       846       848
       847       846       849       848       846       849       846       849       850
       846       849       851       850       849       851       849       851       852
       849       851       853       852       851       853       851       853       854
       851       853       855       851       853       856       854       853       855
       854       853       856       855       853       856       853       856       857
       853       856       858       857       856       858       856       858       859
       856       858       860       859       858       860       858       860       861
       858       860       862       858       860       863       861       860       862
       861       860       863       862       860       863       860       863       864
       860       863       865       864       863       865       863       865       866
       863       865       867       866       865       867       865       867       868
       865       867       869       865       867       870       868       867       869
       868       867       870       869       867       870       867       870       871
       867       870       872       867       870       873       871       870       872
       871       870       873       872       870       873       870       873       874
       870       873       875       870       873       876       874       873       875
       874       873       876       875       873       876       873       876       877
       873       876       878       873       876       879       877       876       878
       877       876       879       878       876       879       876       879       880
       876       879       881       876       879       882       880       879       881
       880       879       882       881       879       882       833       883       884
       833       883       885       833       883       886       884       883       885
       884       883       886       885       883       886       883       886       887
       883       886       888       883       886       889       887       886       888
       887       886       889       888       886       889       886       889       890
       886       889       891       886       889       892       890       889       891
       890       889       892       891       889       892       889       892       893
       889       892       894       889       892       895       893       892       894
       893       892       895       894       892       895       892       895       896
       892       895       897       892       895       898       896       895       897
       896       895       898       897       895       898       895       898       899
       895       898       900       895       898       901       899       898       900
       899       898       901       900       898       901       898       901       902
       898       901       903       898       901       904       902       901       903
       902       901       904       903       901       904       901       904       905
       901       904       906       901       904       907       905       904       906
       905       904       907       906       904       907       904       907       908
       904       907       909       904       907       910       908       907       909
       908       907       910       909       907       910       907       910       911
       907       910       912       907       910       913       911       910       912
       911       910       913       912       910       913       910       913       914
       910       913       915       910       913       916       914       913       915
       914       913       916       915       913       916       913       916       917
       913       916       918       913       916       919       917       916       918
       917       916       919       918       916       919       916       919       920
       916       919       921       916       919       922       920       919       921
       920       919       922       921       919       922       919       922       923
       919       922       924       919       922       925       923       922       924
       923       922       925       924       922       925       922       925       926
       922       925       927       922       925       928       926       925       927
       926       925       928       927       925       928       925       928       929
       925       928       930       925       928       931       929       928       930
       929       928       931       930       928       931     17001     17000     17002
     17001     17000     17003     17001     17000     17004     17002     17000     17003
     17002     17000     17004     17003     17000     17004     17000     17004     17005
     17000     17004     17006     17000     17004     17007     17005     17004     17006
     17005     17004     17007     17006     17004     17007     17004     17007     17008
     17004     17007     17009     17004     17007     17013     17008     17007     17009
     17008     17007     17013     17009     17007     17013     17011     17010     17012
     17011     17010     17013     17011     17010     17014     17012     17010     17013
     17012     17010     17014     17013     17010     17014     17007     17013     17010
     17010     17014     17015     17014     17015     17016     17014     17015     17017
     17014     17015     17018     17016     17015     17017     17016     17015     17018
     17017     17015     17018     17015     17018     17019     17015     17018     17020
     17015     17018     17026     17019     17018     17020     17019     17018     17026
     17020     17018     17026     17018     17020     17021     17020     17021     17022
     17020     17021     17023     17022     17021     17023     17021     17023     17024
     17021     17023     17025     17021     17023     17035     17024     17023     17025
     17024     17023     17035     17025     17023     17035     17018     17026     17027
     17018     17026     17028     17018     17026     17029     17027     17026     17028
     17027     17026     17029     17028     17026     17029     17026     17029     17030
     17029     17030     17031     17029     17030     17032     17031     17030     17032
     17030     17032     17033     17030     17032     17034     17030     17032     17082
     17033     17032     17034     17033     17032     17082     17034     17032     17082
     17023     17035     17036     17023     17035     17037     17023     17035     17038
     17036     17035     17037     17036     17035     17038     17037     17035     17038
     17035     17038     17039     17035     17038     17040     17035     17038     17041
     17039     17038     17040     17039     17038     17041     17040     17038     17041
     17038     17041     17042     17038     17041     17043     17042     17041     17043
     17041     17043     17044     17041     17043     17045     17044     17043     17045
     17043     17045     17046     17043     17045     17047     17043     17045     17048
     17046     17045     17047     17046     17045     17048     17047     17045     17048
     17045     17048     17049     17045     17048     17050     17049     17048     17050
     17048     17050     17051     17048     17050     17052     17051     17050     17052
     17050     17052     17053     17050     17052     17054     17050     17052     17055
     17053     17052     17054     17053     17052     17055     17054     17052     17055
     17052     17055     17056     17052     17055     17057     17056     17055     17057
     17055     17057     17058     17055     17057     17059     17058     17057     17059
     17057     17059     17060     17057     17059     17061     17057     17059     17062
     17060     17059     17061     17060     17059     17062     17061     17059     17062
     17059     17062     17063     17059     17062     17064     17063     17062     17064
     17062     17064     17065     17062     17064     17066     17065     17064     17066
     17064     17066     17067     17064     17066     17068     17064     17066     17069
     17067     17066     17068     17067     17066     17069     17068     17066     17069
     17066     17069     17070     17066     17069     17071     17066     17069     17072
     17070     17069     17071     17070     17069     17072     17071     17069     17072
     17069     17072     17073     17069     17072     17074     17069     17072     17075
     17073     17072     17074     17073     17072     17075     17074     17072     17075
     17072     17075     17076     17072     17075     17077     17072     17075     17078
     17076     17075     17077     17076     17075     17078     17077     17075     17078
     17075     17078     17079     17075     17078     17080     17075     17078     17081
     17079     17078     17080     17079     17078     17081     17080     17078     17081
     17032     17082     17083     17032     17082     17084     17032     17082     17085
     17083     17082     17084     17083     17082     17085     17084     17082     17085
     17082     17085     17086     17082     17085     17087     17082     17085     17088
     17086     17085     17087     17086     17085     17088     17087     17085     17088
     17085     17088     17089     17085     17088     17090     17085     17088     17091
     17089     17088     17090     17089     17088     17091     17090     17088     17091
     17088     17091     17092     17088     17091     17093     17088     17091     17094
     17092     17091     17093     17092     17091     17094     17093     17091     17094
     17091     17094     17095     17091     17094     17096     17091     17094     17097
     17095     17094     17096     17095     17094     17097     17096     17094     17097
     17094     17097     17098     17094     17097     17099     17094     17097     17100
     17098     17097     17099     17098     17097     17100     17099     17097     17100
     17097     17100     17101     17097     17100     17102     17097     17100     17103
     17101     17100     17102     17101     17100     17103     17102     17100     17103
     17100     17103     17104     17100     17103     17105     17100     17103     17106
     17104     17103     17105     17104     17103     17106     17105     17103     17106
     17103     17106     17107     17103     17106     17108     17103     17106     17109
     17107     17106     17108     17107     17106     17109     17108     17106     17109
     17106     17109     17110     17106     17109     17111     17106     17109     17112
     17110     17109     17111     17110     17109     17112     17111     17109     17112
     17109     17112     17113     17109     17112     17114     17109     17112     17115
     17113     17112     17114     17113     17112     17115     17114     17112     17115
     17112     17115     17116     17112     17115     17117     17112     17115     17118
     17116     17115     17117     17116     17115     17118     17117     17115     17118
     17115     17118     17119     17115     17118     17120     17115     17118     17121
     17119     17118     17120     17119     17118     17121     17120     17118     17121
     17118     17121     17122     17118     17121     17123     17118     17121     17124
     17122     17121     17123     17122     17121     17124     17123     17121     17124
     17121     17124     17125     17121     17124     17126     17121     17124     17127
     17125     17124     17126     17125     17124     17127     17126     17124     17127
     17124     17127     17128     17124     17127     17129     17124     17127     17130
     17128     17127     17129     17128     17127     17130     17129     17127     17130
     21280     21279     21283     21280     21279     21287     21280     21279     21291
     21283     21279     21287     21283     21279     21291     21287     21279     21291
     21279     21280     21281     21279     21280     21282     21279     21280     21295
     21281     21280     21282     21281     21280     21295     21282     21280     21295
     21279     21283     21284     21279     21283     21285     21279     21283     21286
     21284     21283     21285     21284     21283     21286     21285     21283     21286
     21279     21287     21288     21279     21287     21289     21279     21287     21290
     21288     21287     21289     21288     21287     21290     21289     21287     21290
     21279     21291     21292     21279     21291     21293     21279     21291     21294
     21292     21291     21293     21292     21291     21294     21293     21291     21294
     21280     21295     21296     21280     21295     21297     21280     21295     21301
     21296     21295     21297     21296     21295     21301     21297     21295     21301
     21299     21298     21300     21299     21298     21301     21299     21298     21302
     21300     21298     21301     21300     21298     21302     21301     21298     21302
     21295     21301     21298     21298     21302     21303     21302     21303     21304
     21302     21303     21305     21302     21303     21306     21304     21303     21305
     21304     21303     21306     21305     21303     21306     21303     21306     21307
     21303     21306     21308     21303     21306     21314     21307     21306     21308
     21307     21306     21314     21308     21306     21314     21306     21308     21309
     21308     21309     21310     21308     21309     21311     21310     21309     21311
     21309     21311     21312     21309     21311     21313     21309     21311     21323
     21312     21311     21313     21312     21311     21323     21313     21311     21323
     21306     21314     21315     21306     21314     21316     21306     21314     21317
     21315     21314     21316     21315     21314     21317     21316     21314     21317
     21314     21317     21318     21317     21318     21319     21317     21318     21320
     21319     21318     21320     21318     21320     21321     21318     21320     21322
     21318     21320     21370     21321     21320     21322     21321     21320     21370
     21322     21320     21370     21311     21323     21324     21311     21323     21325
     21311     21323     21326     21324     21323     21325     21324     21323     21326
     21325     21323     21326     21323     21326     21327     21323     21326     21328
     21323     21326     21329     21327     21326     21328     21327     21326     21329
     21328     21326     21329     21326     21329     21330     21326     21329     21331
     21326     21329     21332     21330     21329     21331     21330     21329     21332
     21331     21329     21332     21329     21332     21333     21329     21332     21334
     21329     21332     21335     21333     21332     21334     21333     21332     21335
     21334     21332     21335     21332     21335     21336     21332     21335     21337
     21332     21335     21338     21336     21335     21337     21336     21335     21338
     21337     21335     21338     21335     21338     21339     21335     21338     21340
     21335     21338     21341     21339     21338     21340     21339     21338     21341
     21340     21338     21341     21338     21341     21342     21338     21341     21343
     21342     21341     21343     21341     21343     21344     21341     21343     21345
     21344     21343     21345     21343     21345     21346     21343     21345     21347
     21343     21345     21348     21346     21345     21347     21346     21345     21348
     21347     21345     21348     21345     21348     21349     21345     21348     21350
     21345     21348     21351     21349     21348     21350     21349     21348     21351
     21350     21348     21351     21348     21351     21352     21348     21351     21353
     21348     21351     21354     21352     21351     21353     21352     21351     21354
     21353     21351     21354     21351     21354     21355     21351     21354     21356
     21351     21354     21357     21355     21354     21356     21355     21354     21357
     21356     21354     21357     21354     21357     21358     21354     21357     21359
     21354     21357     21360     21358     21357     21359     21358     21357     21360
     21359     21357     21360     21357     21360     21361     21357     21360     21362
     21357     21360     21363     21361     21360     21362     21361     21360     21363
     21362     21360     21363     21360     21363     21364     21360     21363     21365
     21360     21363     21366     21364     21363     21365     21364     21363     21366
     21365     21363     21366     21363     21366     21367     21363     21366     21368
     21363     21366     21369     21367     21366     21368     21367     21366     21369
     21368     21366     21369     21320     21370     21371     21320     21370     21372
     21320     21370     21373     21371     21370     21372     21371     21370     21373
     21372     21370     21373     21370     21373     21374     21370     21373     21375
     21370     21373     21376     21374     21373     21375     21374     21373     21376
     21375     21373     21376     21373     21376     21377     21373     21376     21378
     21373     21376     21379     21377     21376     21378     21377     21376     21379
     21378     21376     21379     21376     21379     21380     21376     21379     21381
     21376     21379     21382     21380     21379     21381     21380     21379     21382
     21381     21379     21382     21379     21382     21383     21379     21382     21384
     21379     21382     21385     21383     21382     21384     21383     21382     21385
     21384     21382     21385     21382     21385     21386     21382     21385     21387
     21382     21385     21388     21386     21385     21387     21386     21385     21388
     21387     21385     21388     21385     21388     21389     21385     21388     21390
     21385     21388     21391     21389     21388     21390     21389     21388     21391
     21390     21388     21391     21388     21391     21392     21388     21391     21393
     21388     21391     21394     21392     21391     21393     21392     21391     21394
     21393     21391     21394     21391     21394     21395     21391     21394     21396
     21391     21394     21397     21395     21394     21396     21395     21394     21397
     21396     21394     21397     21394     21397     21398     21394     21397     21399
     21394     21397     21400     21398     21397     21399     21398     21397     21400
     21399     21397     21400     21397     21400     21401     21397     21400     21402
     21397     21400     21403     21401     21400     21402     21401     21400     21403
     21402     21400     21403     21400     21403     21404     21400     21403     21405
     21400     21403     21406     21404     21403     21405     21404     21403     21406
     21405     21403     21406     21403     21406     21407     21403     21406     21408
     21403     21406     21409     21407     21406     21408     21407     21406     21409
     21408     21406     21409     21406     21409     21410     21406     21409     21411
     21406     21409     21412     21410     21409     21411     21410     21409     21412
     21411     21409     21412     12023     12022     12027     12023     12022     12031
     12023     12022     12035     12027     12022     12031     12027     12022     12035
     12031     12022     12035     12022     12023     12024     12022     12023     12025
     12022     12023     12026     12024     12023     12025     12024     12023     12026
     12025     12023     12026     12022     12027     12028     12022     12027     12029
     12022     12027     12030     12028     12027     12029     12028     12027     12030
     12029     12027     12030     12022     12031     12032     12022     12031     12033
     12022     12031     12034     12032     12031     12033     12032     12031     12034
     12033     12031     12034     12022     12035     12036     12022     12035     12037
     12022     12035     12038     12036     12035     12037     12036     12035     12038
     12037     12035     12038     12035     12038     12039     12035     12038     12040
     12035     12038     12045     12039     12038     12040     12039     12038     12045
     12040     12038     12045     12042     12041     12043     12042     12041     12044
     12042     12041     12045     12043     12041     12044     12043     12041     12045
     12044     12041     12045     12041     12044     12046     12038     12045     12041
     12044     12046     12047     12044     12046     12048     12044     12046     12051
     12047     12046     12048     12047     12046     12051     12048     12046     12051
     12050     12049     12051     12050     12049     12101     12051     12049     12101
     12046     12051     12049     12046     12051     12052     12046     12051     12053
     12049     12051     12052     12049     12051     12053     12052     12051     12053
     12051     12053     12054     12051     12053     12055     12051     12053     12057
     12054     12053     12055     12054     12053     12057     12055     12053     12057
     12053     12055     12056     12053     12057     12058     12053     12057     12059
     12058     12057     12059     12057     12059     12060     12057     12059     12061
     12060     12059     12061     12059     12061     12062     12059     12061     12063
     12059     12061     12064     12062     12061     12063     12062     12061     12064
     12063     12061     12064     12061     12064     12065     12061     12064     12066
     12061     12064     12067     12065     12064     12066     12065     12064     12067
     12066     12064     12067     12064     12067     12068     12064     12067     12069
     12064     12067     12070     12068     12067     12069     12068     12067     12070
     12069     12067     12070     12067     12070     12071     12067     12070     12072
     12067     12070     12073     12071     12070     12072     12071     12070     12073
     12072     12070     12073     12070     12073     12074     12070     12073     12075
     12070     12073     12076     12074     12073     12075     12074     12073     12076
     12075     12073     12076     12073     12076     12077     12073     12076     12078
     12073     12076     12079     12077     12076     12078     12077     12076     12079
     12078     12076     12079     12076     12079     12080     12076     12079     12081
     12076     12079     12082     12080     12079     12081     12080     12079     12082
     12081     12079     12082     12079     12082     12083     12079     12082     12084
     12079     12082     12085     12083     12082     12084     12083     12082     12085
     12084     12082     12085     12082     12085     12086     12082     12085     12087
     12082     12085     12088     12086     12085     12087     12086     12085     12088
     12087     12085     12088     12085     12088     12089     12085     12088     12090
     12085     12088     12091     12089     12088     12090     12089     12088     12091
     12090     12088     12091     12088     12091     12092     12088     12091     12093
     12088     12091     12094     12092     12091     12093     12092     12091     12094
     12093     12091     12094     12091     12094     12095     12091     12094     12096
     12091     12094     12097     12095     12094     12096     12095     12094     12097
     12096     12094     12097     12094     12097     12098     12094     12097     12099
     12094     12097     12100     12098     12097     12099     12098     12097     12100
     12099     12097     12100     12049     12101     12102     12049     12101     12103
     12102     12101     12103     12101     12103     12104     12101     12103     12105
     12101     12103     12106     12104     12103     12105     12104     12103     12106
     12105     12103     12106     12103     12106     12107     12103     12106     12108
     12103     12106     12109     12107     12106     12108     12107     12106     12109
     12108     12106     12109     12106     12109     12110     12106     12109     12111
     12106     12109     12112     12110     12109     12111     12110     12109     12112
     12111     12109     12112     12109     12112     12113     12109     12112     12114
     12109     12112     12115     12113     12112     12114     12113     12112     12115
     12114     12112     12115     12112     12115     12116     12112     12115     12117
     12112     12115     12118     12116     12115     12117     12116     12115     12118
     12117     12115     12118     12115     12118     12119     12115     12118     12120
     12115     12118     12121     12119     12118     12120     12119     12118     12121
     12120     12118     12121     12118     12121     12122     12118     12121     12123
     12118     12121     12124     12122     12121     12123     12122     12121     12124
     12123     12121     12124     12121     12124     12125     12121     12124     12126
     12125     12124     12126     12124     12126     12127     12124     12126     12128
     12127     12126     12128     12126     12128     12129     12126     12128     12130
     12126     12128     12131     12129     12128     12130     12129     12128     12131
     12130     12128     12131     12128     12131     12132     12128     12131     12133
     12128     12131     12134     12132     12131     12133     12132     12131     12134
     12133     12131     12134     12131     12134     12135     12131     12134     12136
     12131     12134     12137     12135     12134     12136     12135     12134     12137
     12136     12134     12137     12134     12137     12138     12134     12137     12139
     12134     12137     12140     12138     12137     12139     12138     12137     12140
     12139     12137     12140     12137     12140     12141     12137     12140     12142
     12137     12140     12143     12141     12140     12142     12141     12140     12143
     12142     12140     12143     12140     12143     12144     12140     12143     12145
     12140     12143     12146     12144     12143     12145     12144     12143     12146
     12145     12143     12146     12143     12146     12147     12143     12146     12148
     12143     12146     12149     12147     12146     12148     12147     12146     12149
     12148     12146     12149     12146     12149     12150     12146     12149     12151
     12146     12149     12152     12150     12149     12151     12150     12149     12152
     12151     12149     12152     12154     12153     12158     12154     12153     12162
     12154     12153     12166     12158     12153     12162     12158     12153     12166
     12162     12153     12166     12153     12154     12155     12153     12154     12156
     12153     12154     12157     12155     12154     12156     12155     12154     12157
     12156     12154     12157     12153     12158     12159     12153     12158     12160
     12153     12158     12161     12159     12158     12160     12159     12158     12161
     12160     12158     12161     12153     12162     12163     12153     12162     12164
     12153     12162     12165     12163     12162     12164     12163     12162     12165
     12164     12162     12165     12153     12166     12167     12153     12166     12168
     12153     12166     12169     12167     12166     12168     12167     12166     12169
     12168     12166     12169     12166     12169     12170     12166     12169     12171
     12166     12169     12176     12170     12169     12171     12170     12169     12176
     12171     12169     12176     12173     12172     12174     12173     12172     12175
     12173     12172     12176     12174     12172     12175     12174     12172     12176
     12175     12172     12176     12172     12175     12177     12169     12176     12172
     12175     12177     12178     12175     12177     12179     12175     12177     12182
     12178     12177     12179     12178     12177     12182     12179     12177     12182
     12181     12180     12182     12181     12180     12232     12182     12180     12232
     12177     12182     12180     12177     12182     12183     12177     12182     12184
     12180     12182     12183     12180     12182     12184     12183     12182     12184
     12182     12184     12185     12182     12184     12186     12182     12184     12188
     12185     12184     12186     12185     12184     12188     12186     12184     12188
     12184     12186     12187     12184     12188     12189     12184     12188     12190
     12189     12188     12190     12188     12190     12191     12188     12190     12192
     12191     12190     12192     12190     12192     12193     12190     12192     12194
     12190     12192     12195     12193     12192     12194     12193     12192     12195
     12194     12192     12195     12192     12195     12196     12192     12195     12197
     12192     12195     12198     12196     12195     12197     12196     12195     12198
     12197     12195     12198     12195     12198     12199     12195     12198     12200
     12195     12198     12201     12199     12198     12200     12199     12198     12201
     12200     12198     12201     12198     12201     12202     12198     12201     12203
     12198     12201     12204     12202     12201     12203     12202     12201     12204
     12203     12201     12204     12201     12204     12205     12201     12204     12206
     12201     12204     12207     12205     12204     12206     12205     12204     12207
     12206     12204     12207     12204     12207     12208     12204     12207     12209
     12204     12207     12210     12208     12207     12209     12208     12207     12210
     12209     12207     12210     12207     12210     12211     12207     12210     12212
     12207     12210     12213     12211     12210     12212     12211     12210     12213
     12212     12210     12213     12210     12213     12214     12210     12213     12215
     12210     12213     12216     12214     12213     12215     12214     12213     12216
     12215     12213     12216     12213     12216     12217     12213     12216     12218
     12213     12216     12219     12217     12216     12218     12217     12216     12219
     12218     12216     12219     12216     12219     12220     12216     12219     12221
     12216     12219     12222     12220     12219     12221     12220     12219     12222
     12221     12219     12222     12219     12222     12223     12219     12222     12224
     12219     12222     12225     12223     12222     12224     12223     12222     12225
     12224     12222     12225     12222     12225     12226     12222     12225     12227
     12222     12225     12228     12226     12225     12227     12226     12225     12228
     12227     12225     12228     12225     12228     12229     12225     12228     12230
     12225     12228     12231     12229     12228     12230     12229     12228     12231
     12230     12228     12231     12180     12232     12233     12180     12232     12234
     12233     12232     12234     12232     12234     12235     12232     12234     12236
     12232     12234     12237     12235     12234     12236     12235     12234     12237
     12236     12234     12237     12234     12237     12238     12234     12237     12239
     12234     12237     12240     12238     12237     12239     12238     12237     12240
     12239     12237     12240     12237     12240     12241     12237     12240     12242
     12237     12240     12243     12241     12240     12242     12241     12240     12243
     12242     12240     12243     12240     12243     12244     12240     12243     12245
     12240     12243     12246     12244     12243     12245     12244     12243     12246
     12245     12243     12246     12243     12246     12247     12243     12246     12248
     12243     12246     12249     12247     12246     12248     12247     12246     12249
     12248     12246     12249     12246     12249     12250     12246     12249     12251
     12246     12249     12252     12250     12249     12251     12250     12249     12252
     12251     12249     12252     12249     12252     12253     12249     12252     12254
     12249     12252     12255     12253     12252     12254     12253     12252     12255
     12254     12252     12255     12252     12255     12256     12252     12255     12257
     12256     12255     12257     12255     12257     12258     12255     12257     12259
     12258     12257     12259     12257     12259     12260     12257     12259     12261
     12257     12259     12262     12260     12259     12261     12260     12259     12262
     12261     12259     12262     12259     12262     12263     12259     12262     12264
     12259     12262     12265     12263     12262     12264     12263     12262     12265
     12264     12262     12265     12262     12265     12266     12262     12265     12267
     12262     12265     12268     12266     12265     12267     12266     12265     12268
     12267     12265     12268     12265     12268     12269     12265     12268     12270
     12265     12268     12271     12269     12268     12270     12269     12268     12271
     12270     12268     12271     12268     12271     12272     12268     12271     12273
     12268     12271     12274     12272     12271     12273     12272     12271     12274
     12273     12271     12274     12271     12274     12275     12271     12274     12276
     12271     12274     12277     12275     12274     12276     12275     12274     12277
     12276     12274     12277     12274     12277     12278     12274     12277     12279
     12274     12277     12280     12278     12277     12279     12278     12277     12280
     12279     12277     12280     12277     12280     12281     12277     12280     12282
     12277     12280     12283     12281     12280     12282     12281     12280     12283
     12282     12280     12283     12285     12284     12289     12285     12284     12293
     12285     12284     12297     12289     12284     12293     12289     12284     12297
     12293     12284     12297     12284     12285     12286     12284     12285     12287
     12284     12285     12288     12286     12285     12287     12286     12285     12288
     12287     12285     12288     12284     12289     12290     12284     12289     12291
     12284     12289     12292     12290     12289     12291     12290     12289     12292
     12291     12289     12292     12284     12293     12294     12284     12293     12295
     12284     12293     12296     12294     12293     12295     12294     12293     12296
     12295     12293     12296     12284     12297     12298     12284     12297     12299
     12284     12297     12300     12298     12297     12299     12298     12297     12300
     12299     12297     12300     12297     12300     12301     12297     12300     12302
     12297     12300     12307     12301     12300     12302     12301     12300     12307
     12302     12300     12307     12304     12303     12305     12304     12303     12306
     12304     12303     12307     12305     12303     12306     12305     12303     12307
     12306     12303     12307     12303     12306     12308     12300     12307     12303
     12306     12308     12309     12306     12308     12310     12306     12308     12313
     12309     12308     12310     12309     12308     12313     12310     12308     12313
     12312     12311     12313     12312     12311     12363     12313     12311     12363
     12308     12313     12311     12308     12313     12314     12308     12313     12315
     12311     12313     12314     12311     12313     12315     12314     12313     12315
     12313     12315     12316     12313     12315     12317     12313     12315     12319
     12316     12315     12317     12316     12315     12319     12317     12315     12319
     12315     12317     12318     12315     12319     12320     12315     12319     12321
     12320     12319     12321     12319     12321     12322     12319     12321     12323
     12322     12321     12323     12321     12323     12324     12321     12323     12325
     12321     12323     12326     12324     12323     12325     12324     12323     12326
     12325     12323     12326     12323     12326     12327     12323     12326     12328
     12323     12326     12329     12327     12326     12328     12327     12326     12329
     12328     12326     12329     12326     12329     12330     12326     12329     12331
     12326     12329     12332     12330     12329     12331     12330     12329     12332
     12331     12329     12332     12329     12332     12333     12329     12332     12334
     12329     12332     12335     12333     12332     12334     12333     12332     12335
     12334     12332     12335     12332     12335     12336     12332     12335     12337
     12332     12335     12338     12336     12335     12337     12336     12335     12338
     12337     12335     12338     12335     12338     12339     12335     12338     12340
     12335     12338     12341     12339     12338     12340     12339     12338     12341
     12340     12338     12341     12338     12341     12342     12338     12341     12343
     12338     12341     12344     12342     12341     12343     12342     12341     12344
     12343     12341     12344     12341     12344     12345     12341     12344     12346
     12341     12344     12347     12345     12344     12346     12345     12344     12347
     12346     12344     12347     12344     12347     12348     12344     12347     12349
     12344     12347     12350     12348     12347     12349     12348     12347     12350
     12349     12347     12350     12347     12350     12351     12347     12350     12352
     12347     12350     12353     12351     12350     12352     12351     12350     12353
     12352     12350     12353     12350     12353     12354     12350     12353     12355
     12350     12353     12356     12354     12353     12355     12354     12353     12356
     12355     12353     12356     12353     12356     12357     12353     12356     12358
     12353     12356     12359     12357     12356     12358     12357     12356     12359
     12358     12356     12359     12356     12359     12360     12356     12359     12361
     12356     12359     12362     12360     12359     12361     12360     12359     12362
     12361     12359     12362     12311     12363     12364     12311     12363     12365
     12364     12363     12365     12363     12365     12366     12363     12365     12367
     12363     12365     12368     12366     12365     12367     12366     12365     12368
     12367     12365     12368     12365     12368     12369     12365     12368     12370
     12365     12368     12371     12369     12368     12370     12369     12368     12371
     12370     12368     12371     12368     12371     12372     12368     12371     12373
     12368     12371     12374     12372     12371     12373     12372     12371     12374
     12373     12371     12374     12371     12374     12375     12371     12374     12376
     12371     12374     12377     12375     12374     12376     12375     12374     12377
     12376     12374     12377     12374     12377     12378     12374     12377     12379
     12374     12377     12380     12378     12377     12379     12378     12377     12380
     12379     12377     12380     12377     12380     12381     12377     12380     12382
     12377     12380     12383     12381     12380     12382     12381     12380     12383
     12382     12380     12383     12380     12383     12384     12380     12383     12385
     12380     12383     12386     12384     12383     12385     12384     12383     12386
     12385     12383     12386     12383     12386     12387     12383     12386     12388
     12387     12386     12388     12386     12388     12389     12386     12388     12390
     12389     12388     12390     12388     12390     12391     12388     12390     12392
     12388     12390     12393     12391     12390     12392     12391     12390     12393
     12392     12390     12393     12390     12393     12394     12390     12393     12395
     12390     12393     12396     12394     12393     12395     12394     12393     12396
     12395     12393     12396     12393     12396     12397     12393     12396     12398
     12393     12396     12399     12397     12396     12398     12397     12396     12399
     12398     12396     12399     12396     12399     12400     12396     12399     12401
     12396     12399     12402     12400     12399     12401     12400     12399     12402
     12401     12399     12402     12399     12402     12403     12399     12402     12404
     12399     12402     12405     12403     12402     12404     12403     12402     12405
     12404     12402     12405     12402     12405     12406     12402     12405     12407
     12402     12405     12408     12406     12405     12407     12406     12405     12408
     12407     12405     12408     12405     12408     12409     12405     12408     12410
     12405     12408     12411     12409     12408     12410     12409     12408     12411
     12410     12408     12411     12408     12411     12412     12408     12411     12413
     12408     12411     12414     12412     12411     12413     12412     12411     12414
     12413     12411     12414      8518      8517      8521      8518      8517      8525
      8518      8517      8529      8521      8517      8525      8521      8517      8529
      8525      8517      8529      8517      8518      8519      8517      8518      8520
      8517      8518      8533      8519      8518      8520      8519      8518      8533
      8520      8518      8533      8517      8521      8522      8517      8521      8523
      8517      8521      8524      8522      8521      8523      8522      8521      8524
      8523      8521      8524      8517      8525      8526      8517      8525      8527
      8517      8525      8528      8526      8525      8527      8526      8525      8528
      8527      8525      8528      8517      8529      8530      8517      8529      8531
      8517      8529      8532      8530      8529      8531      8530      8529      8532
      8531      8529      8532      8518      8533      8534      8518      8533      8535
      8518      8533      8539      8534      8533      8535      8534      8533      8539
      8535      8533      8539      8537      8536      8538      8537      8536      8539
      8537      8536      8540      8538      8536      8539      8538      8536      8540
      8539      8536      8540      8533      8539      8536      8536      8540      8541
      8540      8541      8542      8540      8541      8543      8540      8541      8544
      8542      8541      8543      8542      8541      8544      8543      8541      8544
      8541      8544      8545      8541      8544      8546      8541      8544      8552
      8545      8544      8546      8545      8544      8552      8546      8544      8552
      8544      8546      8547      8546      8547      8548      8546      8547      8549
      8548      8547      8549      8547      8549      8550      8547      8549      8551
      8547      8549      8561      8550      8549      8551      8550      8549      8561
      8551      8549      8561      8544      8552      8553      8544      8552      8554
      8544      8552      8555      8553      8552      8554      8553      8552      8555
      8554      8552      8555      8552      8555      8556      8555      8556      8557
      8555      8556      8558      8557      8556      8558      8556      8558      8559
      8556      8558      8560      8556      8558      8608      8559      8558      8560
      8559      8558      8608      8560      8558      8608      8549      8561      8562
      8549      8561      8563      8549      8561      8564      8562      8561      8563
      8562      8561      8564      8563      8561      8564      8561      8564      8565
      8561      8564      8566      8561      8564      8567      8565      8564      8566
      8565      8564      8567      8566      8564      8567      8564      8567      8568
      8564      8567      8569      8568      8567      8569      8567      8569      8570
      8567      8569      8571      8570      8569      8571      8569      8571      8572
      8569      8571      8573      8569      8571      8574      8572      8571      8573
      8572      8571      8574      8573      8571      8574      8571      8574      8575
      8571      8574      8576      8575      8574      8576      8574      8576      8577
      8574      8576      8578      8577      8576      8578      8576      8578      8579
      8576      8578      8580      8576      8578      8581      8579      8578      8580
      8579      8578      8581      8580      8578      8581      8578      8581      8582
      8578      8581      8583      8582      8581      8583      8581      8583      8584
      8581      8583      8585      8584      8583      8585      8583      8585      8586
      8583      8585      8587      8583      8585      8588      8586      8585      8587
      8586      8585      8588      8587      8585      8588      8585      8588      8589
      8585      8588      8590      8589      8588      8590      8588      8590      8591
      8588      8590      8592      8591      8590      8592      8590      8592      8593
      8590      8592      8594      8590      8592      8595      8593      8592      8594
      8593      8592      8595      8594      8592      8595      8592      8595      8596
      8592      8595      8597      8592      8595      8598      8596      8595      8597
      8596      8595      8598      8597      8595      8598      8595      8598      8599
      8595      8598      8600      8595      8598      8601      8599      8598      8600
      8599      8598      8601      8600      8598      8601      8598      8601      8602
      8598      8601      8603      8598      8601      8604      8602      8601      8603
      8602      8601      8604      8603      8601      8604      8601      8604      8605
      8601      8604      8606      8601      8604      8607      8605      8604      8606
      8605      8604      8607      8606      8604      8607      8558      8608      8609
      8558      8608      8610      8558      8608      8611      8609      8608      8610
      8609      8608      8611      8610      8608      8611      8608      8611      8612
      8608      8611      8613      8608      8611      8614      8612      8611      8613
      8612      8611      8614      8613      8611      8614      8611      8614      8615
      8611      8614      8616      8611      8614      8617      8615      8614      8616
      8615      8614      8617      8616      8614      8617      8614      8617      8618
      8614      8617      8619      8614      8617      8620      8618      8617      8619
      8618      8617      8620      8619      8617      8620      8617      8620      8621
      8617      8620      8622      8617      8620      8623      8621      8620      8622
      8621      8620      8623      8622      8620      8623      8620      8623      8624
      8620      8623      8625      8620      8623      8626      8624      8623      8625
      8624      8623      8626      8625      8623      8626      8623      8626      8627
      8623      8626      8628      8623      8626      8629      8627      8626      8628
      8627      8626      8629      8628      8626      8629      8626      8629      8630
      8626      8629      8631      8626      8629      8632      8630      8629      8631
      8630      8629      8632      8631      8629      8632      8629      8632      8633
      8629      8632      8634      8629      8632      8635      8633      8632      8634
      8633      8632      8635      8634      8632      8635      8632      8635      8636
      8632      8635      8637      8632      8635      8638      8636      8635      8637
      8636      8635      8638      8637      8635      8638      8635      8638      8639
      8635      8638      8640      8635      8638      8641      8639      8638      8640
      8639      8638      8641      8640      8638      8641      8638      8641      8642
      8638      8641      8643      8638      8641      8644      8642      8641      8643
      8642      8641      8644      8643      8641      8644      8641      8644      8645
      8641      8644      8646      8641      8644      8647      8645      8644      8646
      8645      8644      8647      8646      8644      8647      8644      8647      8648
      8644      8647      8649      8644      8647      8650      8648      8647      8649
      8648      8647      8650      8649      8647      8650      8647      8650      8651
      8647      8650      8652      8647      8650      8653      8651      8650      8652
      8651      8650      8653      8652      8650      8653      8650      8653      8654
      8650      8653      8655      8650      8653      8656      8654      8653      8655
      8654      8653      8656      8655      8653      8656     12416     12415     12420
     12416     12415     12424     12416     12415     12428     12420     12415     12424
     12420     12415     12428     12424     12415     12428     12415     12416     12417
     12415     12416     12418     12415     12416     12419     12417     12416     12418
     12417     12416     12419     12418     12416     12419     12415     12420     12421
     12415     12420     12422     12415     12420     12423     12421     12420     12422
     12421     12420     12423     12422     12420     12423     12415     12424     12425
     12415     12424     12426     12415     12424     12427     12425     12424     12426
     12425     12424     12427     12426     12424     12427     12415     12428     12429
     12415     12428     12430     12415     12428     12431     12429     12428     12430
     12429     12428     12431     12430     12428     12431     12428     12431     12432
     12428     12431     12433     12428     12431     12438     12432     12431     12433
     12432     12431     12438     12433     12431     12438     12435     12434     12436
     12435     12434     12437     12435     12434     12438     12436     12434     12437
     12436     12434     12438     12437     12434     12438     12434     12437     12439
     12431     12438     12434     12437     12439     12440     12437     12439     12441
     12437     12439     12444     12440     12439     12441     12440     12439     12444
     12441     12439     12444     12443     12442     12444     12443     12442     12494
     12444     12442     12494     12439     12444     12442     12439     12444     12445
     12439     12444     12446     12442     12444     12445     12442     12444     12446
     12445     12444     12446     12444     12446     12447     12444     12446     12448
     12444     12446     12450     12447     12446     12448     12447     12446     12450
     12448     12446     12450     12446     12448     12449     12446     12450     12451
     12446     12450     12452     12451     12450     12452     12450     12452     12453
     12450     12452     12454     12453     12452     12454     12452     12454     12455
     12452     12454     12456     12452     12454     12457     12455     12454     12456
     12455     12454     12457     12456     12454     12457     12454     12457     12458
     12454     12457     12459     12454     12457     12460     12458     12457     12459
     12458     12457     12460     12459     12457     12460     12457     12460     12461
     12457     12460     12462     12457     12460     12463     12461     12460     12462
     12461     12460     12463     12462     12460     12463     12460     12463     12464
     12460     12463     12465     12460     12463     12466     12464     12463     12465
     12464     12463     12466     12465     12463     12466     12463     12466     12467
     12463     12466     12468     12463     12466     12469     12467     12466     12468
     12467     12466     12469     12468     12466     12469     12466     12469     12470
     12466     12469     12471     12466     12469     12472     12470     12469     12471
     12470     12469     12472     12471     12469     12472     12469     12472     12473
     12469     12472     12474     12469     12472     12475     12473     12472     12474
     12473     12472     12475     12474     12472     12475     12472     12475     12476
     12472     12475     12477     12472     12475     12478     12476     12475     12477
     12476     12475     12478     12477     12475     12478     12475     12478     12479
     12475     12478     12480     12475     12478     12481     12479     12478     12480
     12479     12478     12481     12480     12478     12481     12478     12481     12482
     12478     12481     12483     12478     12481     12484     12482     12481     12483
     12482     12481     12484     12483     12481     12484     12481     12484     12485
     12481     12484     12486     12481     12484     12487     12485     12484     12486
     12485     12484     12487     12486     12484     12487     12484     12487     12488
     12484     12487     12489     12484     12487     12490     12488     12487     12489
     12488     12487     12490     12489     12487     12490     12487     12490     12491
     12487     12490     12492     12487     12490     12493     12491     12490     12492
     12491     12490     12493     12492     12490     12493     12442     12494     12495
     12442     12494     12496     12495     12494     12496     12494     12496     12497
     12494     12496     12498     12494     12496     12499     12497     12496     12498
     12497     12496     12499     12498     12496     12499     12496     12499     12500
     12496     12499     12501     12496     12499     12502     12500     12499     12501
     12500     12499     12502     12501     12499     12502     12499     12502     12503
     12499     12502     12504     12499     12502     12505     12503     12502     12504
     12503     12502     12505     12504     12502     12505     12502     12505     12506
     12502     12505     12507     12502     12505     12508     12506     12505     12507
     12506     12505     12508     12507     12505     12508     12505     12508     12509
     12505     12508     12510     12505     12508     12511     12509     12508     12510
     12509     12508     12511     12510     12508     12511     12508     12511     12512
     12508     12511     12513     12508     12511     12514     12512     12511     12513
     12512     12511     12514     12513     12511     12514     12511     12514     12515
     12511     12514     12516     12511     12514     12517     12515     12514     12516
     12515     12514     12517     12516     12514     12517     12514     12517     12518
     12514     12517     12519     12518     12517     12519     12517     12519     12520
     12517     12519     12521     12520     12519     12521     12519     12521     12522
     12519     12521     12523     12519     12521     12524     12522     12521     12523
     12522     12521     12524     12523     12521     12524     12521     12524     12525
     12521     12524     12526     12521     12524     12527     12525     12524     12526
     12525     12524     12527     12526     12524     12527     12524     12527     12528
     12524     12527     12529     12524     12527     12530     12528     12527     12529
     12528     12527     12530     12529     12527     12530     12527     12530     12531
     12527     12530     12532     12527     12530     12533     12531     12530     12532
     12531     12530     12533     12532     12530     12533     12530     12533     12534
     12530     12533     12535     12530     12533     12536     12534     12533     12535
     12534     12533     12536     12535     12533     12536     12533     12536     12537
     12533     12536     12538     12533     12536     12539     12537     12536     12538
     12537     12536     12539     12538     12536     12539     12536     12539     12540
     12536     12539     12541     12536     12539     12542     12540     12539     12541
     12540     12539     12542     12541     12539     12542     12539     12542     12543
     12539     12542     12544     12539     12542     12545     12543     12542     12544
     12543     12542     12545     12544     12542     12545     12547     12546     12551
     12547     12546     12555     12547     12546     12559     12551     12546     12555
     12551     12546     12559     12555     12546     12559     12546     12547     12548
     12546     12547     12549     12546     12547     12550     12548     12547     12549
     12548     12547     12550     12549     12547     12550     12546     12551     12552
     12546     12551     12553     12546     12551     12554     12552     12551     12553
     12552     12551     12554     12553     12551     12554     12546     12555     12556
     12546     12555     12557     12546     12555     12558     12556     12555     12557
     12556     12555     12558     12557     12555     12558     12546     12559     12560
     12546     12559     12561     12546     12559     12562     12560     12559     12561
     12560     12559     12562     12561     12559     12562     12559     12562     12563
     12559     12562     12564     12559     12562     12569     12563     12562     12564
     12563     12562     12569     12564     12562     12569     12566     12565     12567
     12566     12565     12568     12566     12565     12569     12567     12565     12568
     12567     12565     12569     12568     12565     12569     12565     12568     12570
     12562     12569     12565     12568     12570     12571     12568     12570     12572
     12568     12570     12575     12571     12570     12572     12571     12570     12575
     12572     12570     12575     12574     12573     12575     12574     12573     12625
     12575     12573     12625     12570     12575     12573     12570     12575     12576
     12570     12575     12577     12573     12575     12576     12573     12575     12577
     12576     12575     12577     12575     12577     12578     12575     12577     12579
     12575     12577     12581     12578     12577     12579     12578     12577     12581
     12579     12577     12581     12577     12579     12580     12577     12581     12582
     12577     12581     12583     12582     12581     12583     12581     12583     12584
     12581     12583     12585     12584     12583     12585     12583     12585     12586
     12583     12585     12587     12583     12585     12588     12586     12585     12587
     12586     12585     12588     12587     12585     12588     12585     12588     12589
     12585     12588     12590     12585     12588     12591     12589     12588     12590
     12589     12588     12591     12590     12588     12591     12588     12591     12592
     12588     12591     12593     12588     12591     12594     12592     12591     12593
     12592     12591     12594     12593     12591     12594     12591     12594     12595
     12591     12594     12596     12591     12594     12597     12595     12594     12596
     12595     12594     12597     12596     12594     12597     12594     12597     12598
     12594     12597     12599     12594     12597     12600     12598     12597     12599
     12598     12597     12600     12599     12597     12600     12597     12600     12601
     12597     12600     12602     12597     12600     12603     12601     12600     12602
     12601     12600     12603     12602     12600     12603     12600     12603     12604
     12600     12603     12605     12600     12603     12606     12604     12603     12605
     12604     12603     12606     12605     12603     12606     12603     12606     12607
     12603     12606     12608     12603     12606     12609     12607     12606     12608
     12607     12606     12609     12608     12606     12609     12606     12609     12610
     12606     12609     12611     12606     12609     12612     12610     12609     12611
     12610     12609     12612     12611     12609     12612     12609     12612     12613
     12609     12612     12614     12609     12612     12615     12613     12612     12614
     12613     12612     12615     12614     12612     12615     12612     12615     12616
     12612     12615     12617     12612     12615     12618     12616     12615     12617
     12616     12615     12618     12617     12615     12618     12615     12618     12619
     12615     12618     12620     12615     12618     12621     12619     12618     12620
     12619     12618     12621     12620     12618     12621     12618     12621     12622
     12618     12621     12623     12618     12621     12624     12622     12621     12623
     12622     12621     12624     12623     12621     12624     12573     12625     12626
     12573     12625     12627     12626     12625     12627     12625     12627     12628
     12625     12627     12629     12625     12627     12630     12628     12627     12629
     12628     12627     12630     12629     12627     12630     12627     12630     12631
     12627     12630     12632     12627     12630     12633     12631     12630     12632
     12631     12630     12633     12632     12630     12633     12630     12633     12634
     12630     12633     12635     12630     12633     12636     12634     12633     12635
     12634     12633     12636     12635     12633     12636     12633     12636     12637
     12633     12636     12638     12633     12636     12639     12637     12636     12638
     12637     12636     12639     12638     12636     12639     12636     12639     12640
     12636     12639     12641     12636     12639     12642     12640     12639     12641
     12640     12639     12642     12641     12639     12642     12639     12642     12643
     12639     12642     12644     12639     12642     12645     12643     12642     12644
     12643     12642     12645     12644     12642     12645     12642     12645     12646
     12642     12645     12647     12642     12645     12648     12646     12645     12647
     12646     12645     12648     12647     12645     12648     12645     12648     12649
     12645     12648     12650     12649     12648     12650     12648     12650     12651
     12648     12650     12652     12651     12650     12652     12650     12652     12653
     12650     12652     12654     12650     12652     12655     12653     12652     12654
     12653     12652     12655     12654     12652     12655     12652     12655     12656
     12652     12655     12657     12652     12655     12658     12656     12655     12657
     12656     12655     12658     12657     12655     12658     12655     12658     12659
     12655     12658     12660     12655     12658     12661     12659     12658     12660
     12659     12658     12661     12660     12658     12661     12658     12661     12662
     12658     12661     12663     12658     12661     12664     12662     12661     12663
     12662     12661     12664     12663     12661     12664     12661     12664     12665
     12661     12664     12666     12661     12664     12667     12665     12664     12666
     12665     12664     12667     12666     12664     12667     12664     12667     12668
     12664     12667     12669     12664     12667     12670     12668     12667     12669
     12668     12667     12670     12669     12667     12670     12667     12670     12671
     12667     12670     12672     12667     12670     12673     12671     12670     12672
     12671     12670     12673     12672     12670     12673     12670     12673     12674
     12670     12673     12675     12670     12673     12676     12674     12673     12675
     12674     12673     12676     12675     12673     12676       933       932       934
       933       932       935       933       932       936       934       932       935
       934       932       936       935       932       936       932       936       937
       932       936       938       932       936       941       937       936       938
       937       936       941       938       936       941       936       938       939
       936       938       940       939       938       940       936       941       942
       936       941       943       936       941       947       942       941       943
       942       941       947       943       941       947       945       944       946
       945       944       947       945       944       948       946       944       947
       946       944       948       947       944       948       941       947       944
       944       948       949       948       949       950       948       949       951
       948       949       952       950       949       951       950       949       952
       951       949       952       949       952       953       949       952       954
       949       952       960       953       952       954       953       952       960
       954       952       960       952       954       955       954       955       956
       954       955       957       956       955       957       955       957       958
       955       957       959       955       957       969       958       957       959
       958       957       969       959       957       969       952       960       961
       952       960       962       952       960       963       961       960       962
       961       960       963       962       960       963       960       963       964
       963       964       965       963       964       966       965       964       966
       964       966       967       964       966       968       964       966      1016
       967       966       968       967       966      1016       968       966      1016
       957       969       970       957       969       971       957       969       972
       970       969       971       970       969       972       971       969       972
       969       972       973       969       972       974       969       972       975
       973       972       974       973       972       975       974       972       975
       972       975       976       972       975       977       976       975       977
       975       977       978       975       977       979       978       977       979
       977       979       980       977       979       981       977       979       982
       980       979       981       980       979       982       981       979       982
       979       982       983       979       982       984       983       982       984
       982       984       985       982       984       986       985       984       986
       984       986       987       984       986       988       984       986       989
       987       986       988       987       986       989       988       986       989
       986       989       990       986       989       991       990       989       991
       989       991       992       989       991       993       992       991       993
       991       993       994       991       993       995       991       993       996
       994       993       995       994       993       996       995       993       996
       993       996       997       993       996       998       997       996       998
       996       998       999       996       998      1000       999       998      1000
       998      1000      1001       998      1000      1002       998      1000      1003
      1001      1000      1002      1001      1000      1003      1002      1000      1003
      1000      1003      1004      1000      1003      1005      1000      1003      1006
      1004      1003      1005      1004      1003      1006      1005      1003      1006
      1003      1006      1007      1003      1006      1008      1003      1006      1009
      1007      1006      1008      1007      1006      1009      1008      1006      1009
      1006      1009      1010      1006      1009      1011      1006      1009      1012
      1010      1009      1011      1010      1009      1012      1011      1009      1012
      1009      1012      1013      1009      1012      1014      1009      1012      1015
      1013      1012      1014      1013      1012      1015      1014      1012      1015
       966      1016      1017       966      1016      1018       966      1016      1019
      1017      1016      1018      1017      1016      1019      1018      1016      1019
      1016      1019      1020      1016      1019      1021      1016      1019      1022
      1020      1019      1021      1020      1019      1022      1021      1019      1022
      1019      1022      1023      1019      1022      1024      1019      1022      1025
      1023      1022      1024      1023      1022      1025      1024      1022      1025
      1022      1025      1026      1022      1025      1027      1022      1025      1028
      1026      1025      1027      1026      1025      1028      1027      1025      1028
      1025      1028      1029      1025      1028      1030      1025      1028      1031
      1029      1028      1030      1029      1028      1031      1030      1028      1031
      1028      1031      1032      1028      1031      1033      1028      1031      1034
      1032      1031      1033      1032      1031      1034      1033      1031      1034
      1031      1034      1035      1031      1034      1036      1031      1034      1037
      1035      1034      1036      1035      1034      1037      1036      1034      1037
      1034      1037      1038      1034      1037      1039      1034      1037      1040
      1038      1037      1039      1038      1037      1040      1039      1037      1040
      1037      1040      1041      1037      1040      1042      1037      1040      1043
      1041      1040      1042      1041      1040      1043      1042      1040      1043
      1040      1043      1044      1040      1043      1045      1040      1043      1046
      1044      1043      1045      1044      1043      1046      1045      1043      1046
      1043      1046      1047      1043      1046      1048      1043      1046      1049
      1047      1046      1048      1047      1046      1049      1048      1046      1049
      1046      1049      1050      1046      1049      1051      1046      1049      1052
      1050      1049      1051      1050      1049      1052      1051      1049      1052
      1049      1052      1053      1049      1052      1054      1049      1052      1055
      1053      1052      1054      1053      1052      1055      1054      1052      1055
      1052      1055      1056      1052      1055      1057      1052      1055      1058
      1056      1055      1057      1056      1055      1058      1057      1055      1058
      1055      1058      1059      1055      1058      1060      1055      1058      1061
      1059      1058      1060      1059      1058      1061      1060      1058      1061
      1058      1061      1062      1058      1061      1063      1058      1061      1064
      1062      1061      1063      1062      1061      1064      1063      1061      1064
      4364      4363      4365      4364      4363      4367      4364      4363      4409
      4365      4363      4367      4365      4363      4409      4367      4363      4409
      4363      4365      4366      4363      4367      4368      4363      4367      4369
      4363      4367      4370      4368      4367      4369      4368      4367      4370
      4369      4367      4370      4367      4370      4371      4367      4370      4401
      4371      4370      4401      4370      4371      4372      4370      4371      4373
      4372      4371      4373      4371      4373      4374      4371      4373      4375
      4371      4373      4376      4374      4373      4375      4374      4373      4376
      4375      4373      4376      4373      4376      4377      4373      4376      4378
      4373      4376      4399      4377      4376      4378      4377      4376      4399
      4378      4376      4399      4376      4378      4379      4376      4378      4380
      4376      4378      4388      4379      4378      4380      4379      4378      4388
      4380      4378      4388      4378      4380      4381      4378      4380      4382
      4378      4380      4383      4381      4380      4382      4381      4380      4383
      4382      4380      4383      4380      4383      4384      4380      4383      4385
      4380      4383      4386      4384      4383      4385      4384      4383      4386
      4385      4383      4386      4383      4386      4387      4383      4386      4388
      4383      4386      4412      4387      4386      4388      4387      4386      4412
      4388      4386      4412      4378      4388      4386      4378      4388      4389
      4378      4388      4393      4386      4388      4389      4386      4388      4393
      4389      4388      4393      4388      4389      4390      4388      4389      4391
      4388      4389      4392      4390      4389      4391      4390      4389      4392
      4391      4389      4392      4388      4393      4394      4388      4393      4395
      4388      4393      4396      4394      4393      4395      4394      4393      4396
      4395      4393      4396      4393      4396      4397      4393      4396      4398
      4393      4396      4399      4397      4396      4398      4397      4396      4399
      4398      4396      4399      4376      4399      4396      4376      4399      4400
      4376      4399      4401      4396      4399      4400      4396      4399      4401
      4400      4399      4401      4370      4401      4399      4370      4401      4402
      4370      4401      4406      4399      4401      4402      4399      4401      4406
      4402      4401      4406      4401      4402      4403      4401      4402      4404
      4401      4402      4405      4403      4402      4404      4403      4402      4405
      4404      4402      4405      4401      4406      4407      4401      4406      4408
      4401      4406      4409      4407      4406      4408      4407      4406      4409
      4408      4406      4409      4363      4409      4406      4363      4409      4410
      4363      4409      4411      4406      4409      4410      4406      4409      4411
      4410      4409      4411      4386      4412      4413      4386      4412      4414
      4386      4412      4418      4413      4412      4414      4413      4412      4418
      4414      4412      4418      4412      4414      4415      4412      4414      4416
      4412      4414      4417      4415      4414      4416      4415      4414      4417
      4416      4414      4417      4412      4418      4419      4412      4418      4420
      4412      4418      4421      4419      4418      4420      4419      4418      4421
      4420      4418      4421      4418      4421      4422      4418      4421      4423
      4418      4421      4424      4422      4421      4423      4422      4421      4424
      4423      4421      4424      4421      4424      4425      4421      4424      4426
      4421      4424      4427      4425      4424      4426      4425      4424      4427
      4426      4424      4427      4424      4427      4428      4424      4427      4429
      4424      4427      4433      4428      4427      4429      4428      4427      4433
      4429      4427      4433      4427      4429      4430      4427      4429      4431
      4427      4429      4432      4430      4429      4431      4430      4429      4432
      4431      4429      4432      4427      4433      4434      4427      4433      4435
      4427      4433      4436      4434      4433      4435      4434      4433      4436
      4435      4433      4436     20042     20041     20046     20042     20041     20050
     20042     20041     20054     20046     20041     20050     20046     20041     20054
     20050     20041     20054     20041     20042     20043     20041     20042     20044
     20041     20042     20045     20043     20042     20044     20043     20042     20045
     20044     20042     20045     20041     20046     20047     20041     20046     20048
     20041     20046     20049     20047     20046     20048     20047     20046     20049
     20048     20046     20049     20041     20050     20051     20041     20050     20052
     20041     20050     20053     20051     20050     20052     20051     20050     20053
     20052     20050     20053     20041     20054     20055     20041     20054     20056
     20041     20054     20057     20055     20054     20056     20055     20054     20057
     20056     20054     20057     20054     20057     20058     20054     20057     20059
     20054     20057     20063     20058     20057     20059     20058     20057     20063
     20059     20057     20063     20061     20060     20062     20061     20060     20063
     20061     20060     20064     20062     20060     20063     20062     20060     20064
     20063     20060     20064     20057     20063     20060     20060     20064     20065
     20064     20065     20066     20064     20065     20067     20064     20065     20068
     20066     20065     20067     20066     20065     20068     20067     20065     20068
     20065     20068     20069     20065     20068     20070     20065     20068     20076
     20069     20068     20070     20069     20068     20076     20070     20068     20076
     20068     20070     20071     20070     20071     20072     20070     20071     20073
     20072     20071     20073     20071     20073     20074     20071     20073     20075
     20071     20073     20085     20074     20073     20075     20074     20073     20085
     20075     20073     20085     20068     20076     20077     20068     20076     20078
     20068     20076     20079     20077     20076     20078     20077     20076     20079
     20078     20076     20079     20076     20079     20080     20079     20080     20081
     20079     20080     20082     20081     20080     20082     20080     20082     20083
     20080     20082     20084     20080     20082     20130     20083     20082     20084
     20083     20082     20130     20084     20082     20130     20073     20085     20086
     20073     20085     20087     20073     20085     20088     20086     20085     20087
     20086     20085     20088     20087     20085     20088     20085     20088     20089
     20085     20088     20090     20085     20088     20091     20089     20088     20090
     20089     20088     20091     20090     20088     20091     20088     20091     20092
     20088     20091     20093     20088     20091     20094     20092     20091     20093
     20092     20091     20094     20093     20091     20094     20091     20094     20095
     20091     20094     20096     20091     20094     20097     20095     20094     20096
     20095     20094     20097     20096     20094     20097     20094     20097     20098
     20094     20097     20099     20094     20097     20100     20098     20097     20099
     20098     20097     20100     20099     20097     20100     20097     20100     20101
     20097     20100     20102     20097     20100     20103     20101     20100     20102
     20101     20100     20103     20102     20100     20103     20100     20103     20104
     20100     20103     20105     20104     20103     20105     20103     20105     20106
     20103     20105     20107     20106     20105     20107     20105     20107     20108
     20105     20107     20109     20105     20107     20110     20108     20107     20109
     20108     20107     20110     20109     20107     20110     20107     20110     20111
     20107     20110     20112     20111     20110     20112     20110     20112     20113
     20110     20112     20114     20113     20112     20114     20112     20114     20115
     20112     20114     20116     20112     20114     20117     20115     20114     20116
     20115     20114     20117     20116     20114     20117     20114     20117     20118
     20114     20117     20119     20114     20117     20120     20118     20117     20119
     20118     20117     20120     20119     20117     20120     20117     20120     20121
     20117     20120     20122     20117     20120     20123     20121     20120     20122
     20121     20120     20123     20122     20120     20123     20120     20123     20124
     20120     20123     20125     20120     20123     20126     20124     20123     20125
     20124     20123     20126     20125     20123     20126     20123     20126     20127
     20123     20126     20128     20123     20126     20129     20127     20126     20128
     20127     20126     20129     20128     20126     20129     20082     20130     20131
     20082     20130     20132     20082     20130     20133     20131     20130     20132
     20131     20130     20133     20132     20130     20133     20130     20133     20134
     20130     20133     20135     20130     20133     20136     20134     20133     20135
     20134     20133     20136     20135     20133     20136     20133     20136     20137
     20133     20136     20138     20133     20136     20139     20137     20136     20138
     20137     20136     20139     20138     20136     20139     20136     20139     20140
     20136     20139     20141     20136     20139     20142     20140     20139     20141
     20140     20139     20142     20141     20139     20142     20139     20142     20143
     20139     20142     20144     20139     20142     20145     20143     20142     20144
     20143     20142     20145     20144     20142     20145     20142     20145     20146
     20142     20145     20147     20142     20145     20148     20146     20145     20147
     20146     20145     20148     20147     20145     20148     20145     20148     20149
     20145     20148     20150     20145     20148     20151     20149     20148     20150
     20149     20148     20151     20150     20148     20151     20148     20151     20152
     20148     20151     20153     20148     20151     20154     20152     20151     20153
     20152     20151     20154     20153     20151     20154     20151     20154     20155
     20151     20154     20156     20151     20154     20157     20155     20154     20156
     20155     20154     20157     20156     20154     20157     20154     20157     20158
     20154     20157     20159     20154     20157     20160     20158     20157     20159
     20158     20157     20160     20159     20157     20160     20157     20160     20161
     20157     20160     20162     20157     20160     20163     20161     20160     20162
     20161     20160     20163     20162     20160     20163     20160     20163     20164
     20160     20163     20165     20160     20163     20166     20164     20163     20165
     20164     20163     20166     20165     20163     20166     20163     20166     20167
     20163     20166     20168     20163     20166     20169     20167     20166     20168
     20167     20166     20169     20168     20166     20169     20166     20169     20170
     20166     20169     20171     20166     20169     20172     20170     20169     20171
     20170     20169     20172     20171     20169     20172     20169     20172     20173
     20169     20172     20174     20169     20172     20175     20173     20172     20174
     20173     20172     20175     20174     20172     20175     20172     20175     20176
     20172     20175     20177     20172     20175     20178     20176     20175     20177
     20176     20175     20178     20177     20175     20178     21825     21824     21826
     21825     21824     21828     21825     21824     21844     21826     21824     21828
     21826     21824     21844     21828     21824     21844     21824     21826     21827
     21824     21828     21829     21824     21828     21830     21824     21828     21832
     21829     21828     21830     21829     21828     21832     21830     21828     21832
     21828     21830     21831     21828     21832     21833     21828     21832     21834
     21828     21832     21836     21833     21832     21834     21833     21832     21836
     21834     21832     21836     21832     21834     21835     21832     21836     21837
     21832     21836     21838     21832     21836     21840     21837     21836     21838
     21837     21836     21840     21838     21836     21840     21836     21838     21839
     21836     21840     21841     21836     21840     21842     21836     21840     21844
     21841     21840     21842     21841     21840     21844     21842     21840     21844
     21840     21842     21843     21824     21844     21840     21824     21844     21845
     21824     21844     21849     21840     21844     21845     21840     21844     21849
     21845     21844     21849     21847     21846     21848     21847     21846     21849
     21847     21846     21850     21848     21846     21849     21848     21846     21850
     21849     21846     21850     21844     21849     21846     21846     21850     21851
     21850     21851     21852     21850     21851     21853     21850     21851     21854
     21852     21851     21853     21852     21851     21854     21853     21851     21854
     21851     21854     21855     21851     21854     21856     21851     21854     21862
     21855     21854     21856     21855     21854     21862     21856     21854     21862
     21854     21856     21857     21856     21857     21858     21856     21857     21859
     21858     21857     21859     21857     21859     21860     21857     21859     21861
     21857     21859     21871     21860     21859     21861     21860     21859     21871
     21861     21859     21871     21854     21862     21863     21854     21862     21864
     21854     21862     21865     21863     21862     21864     21863     21862     21865
     21864     21862     21865     21862     21865     21866     21865     21866     21867
     21865     21866     21868     21867     21866     21868     21866     21868     21869
     21866     21868     21870     21866     21868     21918     21869     21868     21870
     21869     21868     21918     21870     21868     21918     21859     21871     21872
     21859     21871     21873     21859     21871     21874     21872     21871     21873
     21872     21871     21874     21873     21871     21874     21871     21874     21875
     21871     21874     21876     21871     21874     21877     21875     21874     21876
     21875     21874     21877     21876     21874     21877     21874     21877     21878
     21874     21877     21879     21878     21877     21879     21877     21879     21880
     21877     21879     21881     21880     21879     21881     21879     21881     21882
     21879     21881     21883     21879     21881     21884     21882     21881     21883
     21882     21881     21884     21883     21881     21884     21881     21884     21885
     21881     21884     21886     21885     21884     21886     21884     21886     21887
     21884     21886     21888     21887     21886     21888     21886     21888     21889
     21886     21888     21890     21886     21888     21891     21889     21888     21890
     21889     21888     21891     21890     21888     21891     21888     21891     21892
     21888     21891     21893     21892     21891     21893     21891     21893     21894
     21891     21893     21895     21894     21893     21895     21893     21895     21896
     21893     21895     21897     21893     21895     21898     21896     21895     21897
     21896     21895     21898     21897     21895     21898     21895     21898     21899
     21895     21898     21900     21899     21898     21900     21898     21900     21901
     21898     21900     21902     21901     21900     21902     21900     21902     21903
     21900     21902     21904     21900     21902     21905     21903     21902     21904
     21903     21902     21905     21904     21902     21905     21902     21905     21906
     21902     21905     21907     21902     21905     21908     21906     21905     21907
     21906     21905     21908     21907     21905     21908     21905     21908     21909
     21905     21908     21910     21905     21908     21911     21909     21908     21910
     21909     21908     21911     21910     21908     21911     21908     21911     21912
     21908     21911     21913     21908     21911     21914     21912     21911     21913
     21912     21911     21914     21913     21911     21914     21911     21914     21915
     21911     21914     21916     21911     21914     21917     21915     21914     21916
     21915     21914     21917     21916     21914     21917     21868     21918     21919
     21868     21918     21920     21868     21918     21921     21919     21918     21920
     21919     21918     21921     21920     21918     21921     21918     21921     21922
     21918     21921     21923     21918     21921     21924     21922     21921     21923
     21922     21921     21924     21923     21921     21924     21921     21924     21925
     21921     21924     21926     21921     21924     21927     21925     21924     21926
     21925     21924     21927     21926     21924     21927     21924     21927     21928
     21924     21927     21929     21924     21927     21930     21928     21927     21929
     21928     21927     21930     21929     21927     21930     21927     21930     21931
     21927     21930     21932     21927     21930     21933     21931     21930     21932
     21931     21930     21933     21932     21930     21933     21930     21933     21934
     21930     21933     21935     21930     21933     21936     21934     21933     21935
     21934     21933     21936     21935     21933     21936     21933     21936     21937
     21933     21936     21938     21933     21936     21939     21937     21936     21938
     21937     21936     21939     21938     21936     21939     21936     21939     21940
     21936     21939     21941     21936     21939     21942     21940     21939     21941
     21940     21939     21942     21941     21939     21942     21939     21942     21943
     21939     21942     21944     21939     21942     21945     21943     21942     21944
     21943     21942     21945     21944     21942     21945     21942     21945     21946
     21942     21945     21947     21942     21945     21948     21946     21945     21947
     21946     21945     21948     21947     21945     21948     21945     21948     21949
     21945     21948     21950     21945     21948     21951     21949     21948     21950
     21949     21948     21951     21950     21948     21951     21948     21951     21952
     21948     21951     21953     21948     21951     21954     21952     21951     21953
     21952     21951     21954     21953     21951     21954     21951     21954     21955
     21951     21954     21956     21951     21954     21957     21955     21954     21956
     21955     21954     21957     21956     21954     21957     21954     21957     21958
     21954     21957     21959     21954     21957     21960     21958     21957     21959
     21958     21957     21960     21959     21957     21960     21957     21960     21961
     21957     21960     21962     21957     21960     21963     21961     21960     21962
     21961     21960     21963     21962     21960     21963     21960     21963     21964
     21960     21963     21965     21960     21963     21966     21964     21963     21965
     21964     21963     21966     21965     21963     21966     12678     12677     12682
     12678     12677     12686     12678     12677     12690     12682     12677     12686
     12682     12677     12690     12686     12677     12690     12677     12678     12679
     12677     12678     12680     12677     12678     12681     12679     12678     12680
     12679     12678     12681     12680     12678     12681     12677     12682     12683
     12677     12682     12684     12677     12682     12685     12683     12682     12684
     12683     12682     12685     12684     12682     12685     12677     12686     12687
     12677     12686     12688     12677     12686     12689     12687     12686     12688
     12687     12686     12689     12688     12686     12689     12677     12690     12691
     12677     12690     12692     12677     12690     12693     12691     12690     12692
     12691     12690     12693     12692     12690     12693     12690     12693     12694
     12690     12693     12695     12690     12693     12700     12694     12693     12695
     12694     12693     12700     12695     12693     12700     12697     12696     12698
     12697     12696     12699     12697     12696     12700     12698     12696     12699
     12698     12696     12700     12699     12696     12700     12696     12699     12701
     12693     12700     12696     12699     12701     12702     12699     12701     12703
     12699     12701     12706     12702     12701     12703     12702     12701     12706
     12703     12701     12706     12705     12704     12706     12705     12704     12756
     12706     12704     12756     12701     12706     12704     12701     12706     12707
     12701     12706     12708     12704     12706     12707     12704     12706     12708
     12707     12706     12708     12706     12708     12709     12706     12708     12710
     12706     12708     12712     12709     12708     12710     12709     12708     12712
     12710     12708     12712     12708     12710     12711     12708     12712     12713
     12708     12712     12714     12713     12712     12714     12712     12714     12715
     12712     12714     12716     12715     12714     12716     12714     12716     12717
     12714     12716     12718     12714     12716     12719     12717     12716     12718
     12717     12716     12719     12718     12716     12719     12716     12719     12720
     12716     12719     12721     12716     12719     12722     12720     12719     12721
     12720     12719     12722     12721     12719     12722     12719     12722     12723
     12719     12722     12724     12719     12722     12725     12723     12722     12724
     12723     12722     12725     12724     12722     12725     12722     12725     12726
     12722     12725     12727     12722     12725     12728     12726     12725     12727
     12726     12725     12728     12727     12725     12728     12725     12728     12729
     12725     12728     12730     12725     12728     12731     12729     12728     12730
     12729     12728     12731     12730     12728     12731     12728     12731     12732
     12728     12731     12733     12728     12731     12734     12732     12731     12733
     12732     12731     12734     12733     12731     12734     12731     12734     12735
     12731     12734     12736     12731     12734     12737     12735     12734     12736
     12735     12734     12737     12736     12734     12737     12734     12737     12738
     12734     12737     12739     12734     12737     12740     12738     12737     12739
     12738     12737     12740     12739     12737     12740     12737     12740     12741
     12737     12740     12742     12737     12740     12743     12741     12740     12742
     12741     12740     12743     12742     12740     12743     12740     12743     12744
     12740     12743     12745     12740     12743     12746     12744     12743     12745
     12744     12743     12746     12745     12743     12746     12743     12746     12747
     12743     12746     12748     12743     12746     12749     12747     12746     12748
     12747     12746     12749     12748     12746     12749     12746     12749     12750
     12746     12749     12751     12746     12749     12752     12750     12749     12751
     12750     12749     12752     12751     12749     12752     12749     12752     12753
     12749     12752     12754     12749     12752     12755     12753     12752     12754
     12753     12752     12755     12754     12752     12755     12704     12756     12757
     12704     12756     12758     12757     12756     12758     12756     12758     12759
     12756     12758     12760     12756     12758     12761     12759     12758     12760
     12759     12758     12761     12760     12758     12761     12758     12761     12762
     12758     12761     12763     12758     12761     12764     12762     12761     12763
     12762     12761     12764     12763     12761     12764     12761     12764     12765
     12761     12764     12766     12761     12764     12767     12765     12764     12766
     12765     12764     12767     12766     12764     12767     12764     12767     12768
     12764     12767     12769     12764     12767     12770     12768     12767     12769
     12768     12767     12770     12769     12767     12770     12767     12770     12771
     12767     12770     12772     12767     12770     12773     12771     12770     12772
     12771     12770     12773     12772     12770     12773     12770     12773     12774
     12770     12773     12775     12770     12773     12776     12774     12773     12775
     12774     12773     12776     12775     12773     12776     12773     12776     12777
     12773     12776     12778     12773     12776     12779     12777     12776     12778
     12777     12776     12779     12778     12776     12779     12776     12779     12780
     12776     12779     12781     12780     12779     12781     12779     12781     12782
     12779     12781     12783     12782     12781     12783     12781     12783     12784
     12781     12783     12785     12781     12783     12786     12784     12783     12785
     12784     12783     12786     12785     12783     12786     12783     12786     12787
     12783     12786     12788     12783     12786     12789     12787     12786     12788
     12787     12786     12789     12788     12786     12789     12786     12789     12790
     12786     12789     12791     12786     12789     12792     12790     12789     12791
     12790     12789     12792     12791     12789     12792     12789     12792     12793
     12789     12792     12794     12789     12792     12795     12793     12792     12794
     12793     12792     12795     12794     12792     12795     12792     12795     12796
     12792     12795     12797     12792     12795     12798     12796     12795     12797
     12796     12795     12798     12797     12795     12798     12795     12798     12799
     12795     12798     12800     12795     12798     12801     12799     12798     12800
     12799     12798     12801     12800     12798     12801     12798     12801     12802
     12798     12801     12803     12798     12801     12804     12802     12801     12803
     12802     12801     12804     12803     12801     12804     12801     12804     12805
     12801     12804     12806     12801     12804     12807     12805     12804     12806
     12805     12804     12807     12806     12804     12807     17132     17131     17133
     17132     17131     17134     17132     17131     17135     17133     17131     17134
     17133     17131     17135     17134     17131     17135     17131     17135     17136
     17131     17135     17137     17131     17135     17138     17136     17135     17137
     17136     17135     17138     17137     17135     17138     17135     17138     17139
     17135     17138     17140     17135     17138     17144     17139     17138     17140
     17139     17138     17144     17140     17138     17144     17142     17141     17143
     17142     17141     17144     17142     17141     17145     17143     17141     17144
     17143     17141     17145     17144     17141     17145     17138     17144     17141
     17141     17145     17146     17145     17146     17147     17145     17146     17148
     17145     17146     17149     17147     17146     17148     17147     17146     17149
     17148     17146     17149     17146     17149     17150     17146     17149     17151
     17146     17149     17157     17150     17149     17151     17150     17149     17157
     17151     17149     17157     17149     17151     17152     17151     17152     17153
     17151     17152     17154     17153     17152     17154     17152     17154     17155
     17152     17154     17156     17152     17154     17166     17155     17154     17156
     17155     17154     17166     17156     17154     17166     17149     17157     17158
     17149     17157     17159     17149     17157     17160     17158     17157     17159
     17158     17157     17160     17159     17157     17160     17157     17160     17161
     17160     17161     17162     17160     17161     17163     17162     17161     17163
     17161     17163     17164     17161     17163     17165     17161     17163     17213
     17164     17163     17165     17164     17163     17213     17165     17163     17213
     17154     17166     17167     17154     17166     17168     17154     17166     17169
     17167     17166     17168     17167     17166     17169     17168     17166     17169
     17166     17169     17170     17166     17169     17171     17166     17169     17172
     17170     17169     17171     17170     17169     17172     17171     17169     17172
     17169     17172     17173     17169     17172     17174     17173     17172     17174
     17172     17174     17175     17172     17174     17176     17175     17174     17176
     17174     17176     17177     17174     17176     17178     17174     17176     17179
     17177     17176     17178     17177     17176     17179     17178     17176     17179
     17176     17179     17180     17176     17179     17181     17180     17179     17181
     17179     17181     17182     17179     17181     17183     17182     17181     17183
     17181     17183     17184     17181     17183     17185     17181     17183     17186
     17184     17183     17185     17184     17183     17186     17185     17183     17186
     17183     17186     17187     17183     17186     17188     17187     17186     17188
     17186     17188     17189     17186     17188     17190     17189     17188     17190
     17188     17190     17191     17188     17190     17192     17188     17190     17193
     17191     17190     17192     17191     17190     17193     17192     17190     17193
     17190     17193     17194     17190     17193     17195     17194     17193     17195
     17193     17195     17196     17193     17195     17197     17196     17195     17197
     17195     17197     17198     17195     17197     17199     17195     17197     17200
     17198     17197     17199     17198     17197     17200     17199     17197     17200
     17197     17200     17201     17197     17200     17202     17197     17200     17203
     17201     17200     17202     17201     17200     17203     17202     17200     17203
     17200     17203     17204     17200     17203     17205     17200     17203     17206
     17204     17203     17205     17204     17203     17206     17205     17203     17206
     17203     17206     17207     17203     17206     17208     17203     17206     17209
     17207     17206     17208     17207     17206     17209     17208     17206     17209
     17206     17209     17210     17206     17209     17211     17206     17209     17212
     17210     17209     17211     17210     17209     17212     17211     17209     17212
     17163     17213     17214     17163     17213     17215     17163     17213     17216
     17214     17213     17215     17214     17213     17216     17215     17213     17216
     17213     17216     17217     17213     17216     17218     17213     17216     17219
     17217     17216     17218     17217     17216     17219     17218     17216     17219
     17216     17219     17220     17216     17219     17221     17216     17219     17222
     17220     17219     17221     17220     17219     17222     17221     17219     17222
     17219     17222     17223     17219     17222     17224     17219     17222     17225
     17223     17222     17224     17223     17222     17225     17224     17222     17225
     17222     17225     17226     17222     17225     17227     17222     17225     17228
     17226     17225     17227     17226     17225     17228     17227     17225     17228
     17225     17228     17229     17225     17228     17230     17225     17228     17231
     17229     17228     17230     17229     17228     17231     17230     17228     17231
     17228     17231     17232     17228     17231     17233     17228     17231     17234
     17232     17231     17233     17232     17231     17234     17233     17231     17234
     17231     17234     17235     17231     17234     17236     17231     17234     17237
     17235     17234     17236     17235     17234     17237     17236     17234     17237
     17234     17237     17238     17234     17237     17239     17234     17237     17240
     17238     17237     17239     17238     17237     17240     17239     17237     17240
     17237     17240     17241     17237     17240     17242     17237     17240     17243
     17241     17240     17242     17241     17240     17243     17242     17240     17243
     17240     17243     17244     17240     17243     17245     17240     17243     17246
     17244     17243     17245     17244     17243     17246     17245     17243     17246
     17243     17246     17247     17243     17246     17248     17243     17246     17249
     17247     17246     17248     17247     17246     17249     17248     17246     17249
     17246     17249     17250     17246     17249     17251     17246     17249     17252
     17250     17249     17251     17250     17249     17252     17251     17249     17252
     17249     17252     17253     17249     17252     17254     17249     17252     17255
     17253     17252     17254     17253     17252     17255     17254     17252     17255
     17252     17255     17256     17252     17255     17257     17252     17255     17258
     17256     17255     17257     17256     17255     17258     17257     17255     17258
     17255     17258     17259     17255     17258     17260     17255     17258     17261
     17259     17258     17260     17259     17258     17261     17260     17258     17261
      4438      4437      4439      4438      4437      4441      4438      4437      4483
      4439      4437      4441      4439      4437      4483      4441      4437      4483
      4437      4439      4440      4437      4441      4442      4437      4441      4443
      4437      4441      4444      4442      4441      4443      4442      4441      4444
      4443      4441      4444      4441      4444      4445      4441      4444      4475
      4445      4444      4475      4444      4445      4446      4444      4445      4447
      4446      4445      4447      4445      4447      4448      4445      4447      4449
      4445      4447      4450      4448      4447      4449      4448      4447      4450
      4449      4447      4450      4447      4450      4451      4447      4450      4452
      4447      4450      4473      4451      4450      4452      4451      4450      4473
      4452      4450      4473      4450      4452      4453      4450      4452      4454
      4450      4452      4462      4453      4452      4454      4453      4452      4462
      4454      4452      4462      4452      4454      4455      4452      4454      4456
      4452      4454      4457      4455      4454      4456      4455      4454      4457
      4456      4454      4457      4454      4457      4458      4454      4457      4459
      4454      4457      4460      4458      4457      4459      4458      4457      4460
      4459      4457      4460      4457      4460      4461      4457      4460      4462
      4457      4460      4486      4461      4460      4462      4461      4460      4486
      4462      4460      4486      4452      4462      4460      4452      4462      4463
      4452      4462      4467      4460      4462      4463      4460      4462      4467
      4463      4462      4467      4462      4463      4464      4462      4463      4465
      4462      4463      4466      4464      4463      4465      4464      4463      4466
      4465      4463      4466      4462      4467      4468      4462      4467      4469
      4462      4467      4470      4468      4467      4469      4468      4467      4470
      4469      4467      4470      4467      4470      4471      4467      4470      4472
      4467      4470      4473      4471      4470      4472      4471      4470      4473
      4472      4470      4473      4450      4473      4470      4450      4473      4474
      4450      4473      4475      4470      4473      4474      4470      4473      4475
      4474      4473      4475      4444      4475      4473      4444      4475      4476
      4444      4475      4480      4473      4475      4476      4473      4475      4480
      4476      4475      4480      4475      4476      4477      4475      4476      4478
      4475      4476      4479      4477      4476      4478      4477      4476      4479
      4478      4476      4479      4475      4480      4481      4475      4480      4482
      4475      4480      4483      4481      4480      4482      4481      4480      4483
      4482      4480      4483      4437      4483      4480      4437      4483      4484
      4437      4483      4485      4480      4483      4484      4480      4483      4485
      4484      4483      4485      4460      4486      4487      4460      4486      4488
      4460      4486      4492      4487      4486      4488      4487      4486      4492
      4488      4486      4492      4486      4488      4489      4486      4488      4490
      4486      4488      4491      4489      4488      4490      4489      4488      4491
      4490      4488      4491      4486      4492      4493      4486      4492      4494
      4486      4492      4495      4493      4492      4494      4493      4492      4495
      4494      4492      4495      4492      4495      4496      4492      4495      4497
      4492      4495      4498      4496      4495      4497      4496      4495      4498
      4497      4495      4498      4495      4498      4499      4495      4498      4500
      4495      4498      4501      4499      4498      4500      4499      4498      4501
      4500      4498      4501      4498      4501      4502      4498      4501      4503
      4498      4501      4507      4502      4501      4503      4502      4501      4507
      4503      4501      4507      4501      4503      4504      4501      4503      4505
      4501      4503      4506      4504      4503      4505      4504      4503      4506
      4505      4503      4506      4501      4507      4508      4501      4507      4509
      4501      4507      4510      4508      4507      4509      4508      4507      4510
      4509      4507      4510     17263     17262     17264     17263     17262     17265
     17263     17262     17266     17264     17262     17265     17264     17262     17266
     17265     17262     17266     17262     17266     17267     17262     17266     17268
     17262     17266     17269     17267     17266     17268     17267     17266     17269
     17268     17266     17269     17266     17269     17270     17266     17269     17271
     17266     17269     17275     17270     17269     17271     17270     17269     17275
     17271     17269     17275     17273     17272     17274     17273     17272     17275
     17273     17272     17276     17274     17272     17275     17274     17272     17276
     17275     17272     17276     17269     17275     17272     17272     17276     17277
     17276     17277     17278     17276     17277     17279     17276     17277     17280
     17278     17277     17279     17278     17277     17280     17279     17277     17280
     17277     17280     17281     17277     17280     17282     17277     17280     17288
     17281     17280     17282     17281     17280     17288     17282     17280     17288
     17280     17282     17283     17282     17283     17284     17282     17283     17285
     17284     17283     17285     17283     17285     17286     17283     17285     17287
     17283     17285     17297     17286     17285     17287     17286     17285     17297
     17287     17285     17297     17280     17288     17289     17280     17288     17290
     17280     17288     17291     17289     17288     17290     17289     17288     17291
     17290     17288     17291     17288     17291     17292     17291     17292     17293
     17291     17292     17294     17293     17292     17294     17292     17294     17295
     17292     17294     17296     17292     17294     17344     17295     17294     17296
     17295     17294     17344     17296     17294     17344     17285     17297     17298
     17285     17297     17299     17285     17297     17300     17298     17297     17299
     17298     17297     17300     17299     17297     17300     17297     17300     17301
     17297     17300     17302     17297     17300     17303     17301     17300     17302
     17301     17300     17303     17302     17300     17303     17300     17303     17304
     17300     17303     17305     17304     17303     17305     17303     17305     17306
     17303     17305     17307     17306     17305     17307     17305     17307     17308
     17305     17307     17309     17305     17307     17310     17308     17307     17309
     17308     17307     17310     17309     17307     17310     17307     17310     17311
     17307     17310     17312     17311     17310     17312     17310     17312     17313
     17310     17312     17314     17313     17312     17314     17312     17314     17315
     17312     17314     17316     17312     17314     17317     17315     17314     17316
     17315     17314     17317     17316     17314     17317     17314     17317     17318
     17314     17317     17319     17318     17317     17319     17317     17319     17320
     17317     17319     17321     17320     17319     17321     17319     17321     17322
     17319     17321     17323     17319     17321     17324     17322     17321     17323
     17322     17321     17324     17323     17321     17324     17321     17324     17325
     17321     17324     17326     17325     17324     17326     17324     17326     17327
     17324     17326     17328     17327     17326     17328     17326     17328     17329
     17326     17328     17330     17326     17328     17331     17329     17328     17330
     17329     17328     17331     17330     17328     17331     17328     17331     17332
     17328     17331     17333     17328     17331     17334     17332     17331     17333
     17332     17331     17334     17333     17331     17334     17331     17334     17335
     17331     17334     17336     17331     17334     17337     17335     17334     17336
     17335     17334     17337     17336     17334     17337     17334     17337     17338
     17334     17337     17339     17334     17337     17340     17338     17337     17339
     17338     17337     17340     17339     17337     17340     17337     17340     17341
     17337     17340     17342     17337     17340     17343     17341     17340     17342
     17341     17340     17343     17342     17340     17343     17294     17344     17345
     17294     17344     17346     17294     17344     17347     17345     17344     17346
     17345     17344     17347     17346     17344     17347     17344     17347     17348
     17344     17347     17349     17344     17347     17350     17348     17347     17349
     17348     17347     17350     17349     17347     17350     17347     17350     17351
     17347     17350     17352     17347     17350     17353     17351     17350     17352
     17351     17350     17353     17352     17350     17353     17350     17353     17354
     17350     17353     17355     17350     17353     17356     17354     17353     17355
     17354     17353     17356     17355     17353     17356     17353     17356     17357
     17353     17356     17358     17353     17356     17359     17357     17356     17358
     17357     17356     17359     17358     17356     17359     17356     17359     17360
     17356     17359     17361     17356     17359     17362     17360     17359     17361
     17360     17359     17362     17361     17359     17362     17359     17362     17363
     17359     17362     17364     17359     17362     17365     17363     17362     17364
     17363     17362     17365     17364     17362     17365     17362     17365     17366
     17362     17365     17367     17362     17365     17368     17366     17365     17367
     17366     17365     17368     17367     17365     17368     17365     17368     17369
     17365     17368     17370     17365     17368     17371     17369     17368     17370
     17369     17368     17371     17370     17368     17371     17368     17371     17372
     17368     17371     17373     17368     17371     17374     17372     17371     17373
     17372     17371     17374     17373     17371     17374     17371     17374     17375
     17371     17374     17376     17371     17374     17377     17375     17374     17376
     17375     17374     17377     17376     17374     17377     17374     17377     17378
     17374     17377     17379     17374     17377     17380     17378     17377     17379
     17378     17377     17380     17379     17377     17380     17377     17380     17381
     17377     17380     17382     17377     17380     17383     17381     17380     17382
     17381     17380     17383     17382     17380     17383     17380     17383     17384
     17380     17383     17385     17380     17383     17386     17384     17383     17385
     17384     17383     17386     17385     17383     17386     17383     17386     17387
     17383     17386     17388     17383     17386     17389     17387     17386     17388
     17387     17386     17389     17388     17386     17389     17386     17389     17390
     17386     17389     17391     17386     17389     17392     17390     17389     17391
     17390     17389     17392     17391     17389     17392     20180     20179     20184
     20180     20179     20188     20180     20179     20192     20184     20179     20188
     20184     20179     20192     20188     20179     20192     20179     20180     20181
     20179     20180     20182     20179     20180     20183     20181     20180     20182
     20181     20180     20183     20182     20180     20183     20179     20184     20185
     20179     20184     20186     20179     20184     20187     20185     20184     20186
     20185     20184     20187     20186     20184     20187     20179     20188     20189
     20179     20188     20190     20179     20188     20191     20189     20188     20190
     20189     20188     20191     20190     20188     20191     20179     20192     20193
     20179     20192     20194     20179     20192     20195     20193     20192     20194
     20193     20192     20195     20194     20192     20195     20192     20195     20196
     20192     20195     20197     20192     20195     20201     20196     20195     20197
     20196     20195     20201     20197     20195     20201     20199     20198     20200
     20199     20198     20201     20199     20198     20202     20200     20198     20201
     20200     20198     20202     20201     20198     20202     20195     20201     20198
     20198     20202     20203     20202     20203     20204     20202     20203     20205
     20202     20203     20206     20204     20203     20205     20204     20203     20206
     20205     20203     20206     20203     20206     20207     20203     20206     20208
     20203     20206     20214     20207     20206     20208     20207     20206     20214
     20208     20206     20214     20206     20208     20209     20208     20209     20210
     20208     20209     20211     20210     20209     20211     20209     20211     20212
     20209     20211     20213     20209     20211     20223     20212     20211     20213
     20212     20211     20223     20213     20211     20223     20206     20214     20215
     20206     20214     20216     20206     20214     20217     20215     20214     20216
     20215     20214     20217     20216     20214     20217     20214     20217     20218
     20217     20218     20219     20217     20218     20220     20219     20218     20220
     20218     20220     20221     20218     20220     20222     20218     20220     20268
     20221     20220     20222     20221     20220     20268     20222     20220     20268
     20211     20223     20224     20211     20223     20225     20211     20223     20226
     20224     20223     20225     20224     20223     20226     20225     20223     20226
     20223     20226     20227     20223     20226     20228     20223     20226     20229
     20227     20226     20228     20227     20226     20229     20228     20226     20229
     20226     20229     20230     20226     20229     20231     20226     20229     20232
     20230     20229     20231     20230     20229     20232     20231     20229     20232
     20229     20232     20233     20229     20232     20234     20229     20232     20235
     20233     20232     20234     20233     20232     20235     20234     20232     20235
     20232     20235     20236     20232     20235     20237     20232     20235     20238
     20236     20235     20237     20236     20235     20238     20237     20235     20238
     20235     20238     20239     20235     20238     20240     20235     20238     20241
     20239     20238     20240     20239     20238     20241     20240     20238     20241
     20238     20241     20242     20238     20241     20243     20242     20241     20243
     20241     20243     20244     20241     20243     20245     20244     20243     20245
     20243     20245     20246     20243     20245     20247     20243     20245     20248
     20246     20245     20247     20246     20245     20248     20247     20245     20248
     20245     20248     20249     20245     20248     20250     20249     20248     20250
     20248     20250     20251     20248     20250     20252     20251     20250     20252
     20250     20252     20253     20250     20252     20254     20250     20252     20255
     20253     20252     20254     20253     20252     20255     20254     20252     20255
     20252     20255     20256     20252     20255     20257     20252     20255     20258
     20256     20255     20257     20256     20255     20258     20257     20255     20258
     20255     20258     20259     20255     20258     20260     20255     20258     20261
     20259     20258     20260     20259     20258     20261     20260     20258     20261
     20258     20261     20262     20258     20261     20263     20258     20261     20264
     20262     20261     20263     20262     20261     20264     20263     20261     20264
     20261     20264     20265     20261     20264     20266     20261     20264     20267
     20265     20264     20266     20265     20264     20267     20266     20264     20267
     20220     20268     20269     20220     20268     20270     20220     20268     20271
     20269     20268     20270     20269     20268     20271     20270     20268     20271
     20268     20271     20272     20268     20271     20273     20268     20271     20274
     20272     20271     20273     20272     20271     20274     20273     20271     20274
     20271     20274     20275     20271     20274     20276     20271     20274     20277
     20275     20274     20276     20275     20274     20277     20276     20274     20277
     20274     20277     20278     20274     20277     20279     20274     20277     20280
     20278     20277     20279     20278     20277     20280     20279     20277     20280
     20277     20280     20281     20277     20280     20282     20277     20280     20283
     20281     20280     20282     20281     20280     20283     20282     20280     20283
     20280     20283     20284     20280     20283     20285     20280     20283     20286
     20284     20283     20285     20284     20283     20286     20285     20283     20286
     20283     20286     20287     20283     20286     20288     20283     20286     20289
     20287     20286     20288     20287     20286     20289     20288     20286     20289
     20286     20289     20290     20286     20289     20291     20286     20289     20292
     20290     20289     20291     20290     20289     20292     20291     20289     20292
     20289     20292     20293     20289     20292     20294     20289     20292     20295
     20293     20292     20294     20293     20292     20295     20294     20292     20295
     20292     20295     20296     20292     20295     20297     20292     20295     20298
     20296     20295     20297     20296     20295     20298     20297     20295     20298
     20295     20298     20299     20295     20298     20300     20295     20298     20301
     20299     20298     20300     20299     20298     20301     20300     20298     20301
     20298     20301     20302     20298     20301     20303     20298     20301     20304
     20302     20301     20303     20302     20301     20304     20303     20301     20304
     20301     20304     20305     20301     20304     20306     20301     20304     20307
     20305     20304     20306     20305     20304     20307     20306     20304     20307
     20304     20307     20308     20304     20307     20309     20304     20307     20310
     20308     20307     20309     20308     20307     20310     20309     20307     20310
     20307     20310     20311     20307     20310     20312     20307     20310     20313
     20311     20310     20312     20311     20310     20313     20312     20310     20313
     20310     20313     20314     20310     20313     20315     20310     20313     20316
     20314     20313     20315     20314     20313     20316     20315     20313     20316
      8658      8657      8661      8658      8657      8665      8658      8657      8669
      8661      8657      8665      8661      8657      8669      8665      8657      8669
      8657      8658      8659      8657      8658      8660      8657      8658      8673
      8659      8658      8660      8659      8658      8673      8660      8658      8673
      8657      8661      8662      8657      8661      8663      8657      8661      8664
      8662      8661      8663      8662      8661      8664      8663      8661      8664
      8657      8665      8666      8657      8665      8667      8657      8665      8668
      8666      8665      8667      8666      8665      8668      8667      8665      8668
      8657      8669      8670      8657      8669      8671      8657      8669      8672
      8670      8669      8671      8670      8669      8672      8671      8669      8672
      8658      8673      8674      8658      8673      8675      8658      8673      8679
      8674      8673      8675      8674      8673      8679      8675      8673      8679
      8677      8676      8678      8677      8676      8679      8677      8676      8680
      8678      8676      8679      8678      8676      8680      8679      8676      8680
      8673      8679      8676      8676      8680      8681      8680      8681      8682
      8680      8681      8683      8680      8681      8684      8682      8681      8683
      8682      8681      8684      8683      8681      8684      8681      8684      8685
      8681      8684      8686      8681      8684      8692      8685      8684      8686
      8685      8684      8692      8686      8684      8692      8684      8686      8687
      8686      8687      8688      8686      8687      8689      8688      8687      8689
      8687      8689      8690      8687      8689      8691      8687      8689      8701
      8690      8689      8691      8690      8689      8701      8691      8689      8701
      8684      8692      8693      8684      8692      8694      8684      8692      8695
      8693      8692      8694      8693      8692      8695      8694      8692      8695
      8692      8695      8696      8695      8696      8697      8695      8696      8698
      8697      8696      8698      8696      8698      8699      8696      8698      8700
      8696      8698      8748      8699      8698      8700      8699      8698      8748
      8700      8698      8748      8689      8701      8702      8689      8701      8703
      8689      8701      8704      8702      8701      8703      8702      8701      8704
      8703      8701      8704      8701      8704      8705      8701      8704      8706
      8701      8704      8707      8705      8704      8706      8705      8704      8707
      8706      8704      8707      8704      8707      8708      8704      8707      8709
      8708      8707      8709      8707      8709      8710      8707      8709      8711
      8710      8709      8711      8709      8711      8712      8709      8711      8713
      8709      8711      8714      8712      8711      8713      8712      8711      8714
      8713      8711      8714      8711      8714      8715      8711      8714      8716
      8715      8714      8716      8714      8716      8717      8714      8716      8718
      8717      8716      8718      8716      8718      8719      8716      8718      8720
      8716      8718      8721      8719      8718      8720      8719      8718      8721
      8720      8718      8721      8718      8721      8722      8718      8721      8723
      8722      8721      8723      8721      8723      8724      8721      8723      8725
      8724      8723      8725      8723      8725      8726      8723      8725      8727
      8723      8725      8728      8726      8725      8727      8726      8725      8728
      8727      8725      8728      8725      8728      8729      8725      8728      8730
      8729      8728      8730      8728      8730      8731      8728      8730      8732
      8731      8730      8732      8730      8732      8733      8730      8732      8734
      8730      8732      8735      8733      8732      8734      8733      8732      8735
      8734      8732      8735      8732      8735      8736      8732      8735      8737
      8732      8735      8738      8736      8735      8737      8736      8735      8738
      8737      8735      8738      8735      8738      8739      8735      8738      8740
      8735      8738      8741      8739      8738      8740      8739      8738      8741
      8740      8738      8741      8738      8741      8742      8738      8741      8743
      8738      8741      8744      8742      8741      8743      8742      8741      8744
      8743      8741      8744      8741      8744      8745      8741      8744      8746
      8741      8744      8747      8745      8744      8746      8745      8744      8747
      8746      8744      8747      8698      8748      8749      8698      8748      8750
      8698      8748      8751      8749      8748      8750      8749      8748      8751
      8750      8748      8751      8748      8751      8752      8748      8751      8753
      8748      8751      8754      8752      8751      8753      8752      8751      8754
      8753      8751      8754      8751      8754      8755      8751      8754      8756
      8751      8754      8757      8755      8754      8756      8755      8754      8757
      8756      8754      8757      8754      8757      8758      8754      8757      8759
      8754      8757      8760      8758      8757      8759      8758      8757      8760
      8759      8757      8760      8757      8760      8761      8757      8760      8762
      8757      8760      8763      8761      8760      8762      8761      8760      8763
      8762      8760      8763      8760      8763      8764      8760      8763      8765
      8760      8763      8766      8764      8763      8765      8764      8763      8766
      8765      8763      8766      8763      8766      8767      8763      8766      8768
      8763      8766      8769      8767      8766      8768      8767      8766      8769
      8768      8766      8769      8766      8769      8770      8766      8769      8771
      8766      8769      8772      8770      8769      8771      8770      8769      8772
      8771      8769      8772      8769      8772      8773      8769      8772      8774
      8769      8772      8775      8773      8772      8774      8773      8772      8775
      8774      8772      8775      8772      8775      8776      8772      8775      8777
      8772      8775      8778      8776      8775      8777      8776      8775      8778
      8777      8775      8778      8775      8778      8779      8775      8778      8780
      8775      8778      8781      8779      8778      8780      8779      8778      8781
      8780      8778      8781      8778      8781      8782      8778      8781      8783
      8778      8781      8784      8782      8781      8783      8782      8781      8784
      8783      8781      8784      8781      8784      8785      8781      8784      8786
      8781      8784      8787      8785      8784      8786      8785      8784      8787
      8786      8784      8787      8784      8787      8788      8784      8787      8789
      8784      8787      8790      8788      8787      8789      8788      8787      8790
      8789      8787      8790      8787      8790      8791      8787      8790      8792
      8787      8790      8793      8791      8790      8792      8791      8790      8793
      8792      8790      8793      8790      8793      8794      8790      8793      8795
      8790      8793      8796      8794      8793      8795      8794      8793      8796
      8795      8793      8796     17394     17393     17395     17394     17393     17396
     17394     17393     17397     17395     17393     17396     17395     17393     17397
     17396     17393     17397     17393     17397     17398     17393     17397     17399
     17393     17397     17400     17398     17397     17399     17398     17397     17400
     17399     17397     17400     17397     17400     17401     17397     17400     17402
     17397     17400     17406     17401     17400     17402     17401     17400     17406
     17402     17400     17406     17404     17403     17405     17404     17403     17406
     17404     17403     17407     17405     17403     17406     17405     17403     17407
     17406     17403     17407     17400     17406     17403     17403     17407     17408
     17407     17408     17409     17407     17408     17410     17407     17408     17411
     17409     17408     17410     17409     17408     17411     17410     17408     17411
     17408     17411     17412     17408     17411     17413     17408     17411     17419
     17412     17411     17413     17412     17411     17419     17413     17411     17419
     17411     17413     17414     17413     17414     17415     17413     17414     17416
     17415     17414     17416     17414     17416     17417     17414     17416     17418
     17414     17416     17428     17417     17416     17418     17417     17416     17428
     17418     17416     17428     17411     17419     17420     17411     17419     17421
     17411     17419     17422     17420     17419     17421     17420     17419     17422
     17421     17419     17422     17419     17422     17423     17422     17423     17424
     17422     17423     17425     17424     17423     17425     17423     17425     17426
     17423     17425     17427     17423     17425     17475     17426     17425     17427
     17426     17425     17475     17427     17425     17475     17416     17428     17429
     17416     17428     17430     17416     17428     17431     17429     17428     17430
     17429     17428     17431     17430     17428     17431     17428     17431     17432
     17428     17431     17433     17428     17431     17434     17432     17431     17433
     17432     17431     17434     17433     17431     17434     17431     17434     17435
     17431     17434     17436     17435     17434     17436     17434     17436     17437
     17434     17436     17438     17437     17436     17438     17436     17438     17439
     17436     17438     17440     17436     17438     17441     17439     17438     17440
     17439     17438     17441     17440     17438     17441     17438     17441     17442
     17438     17441     17443     17442     17441     17443     17441     17443     17444
     17441     17443     17445     17444     17443     17445     17443     17445     17446
     17443     17445     17447     17443     17445     17448     17446     17445     17447
     17446     17445     17448     17447     17445     17448     17445     17448     17449
     17445     17448     17450     17449     17448     17450     17448     17450     17451
     17448     17450     17452     17451     17450     17452     17450     17452     17453
     17450     17452     17454     17450     17452     17455     17453     17452     17454
     17453     17452     17455     17454     17452     17455     17452     17455     17456
     17452     17455     17457     17456     17455     17457     17455     17457     17458
     17455     17457     17459     17458     17457     17459     17457     17459     17460
     17457     17459     17461     17457     17459     17462     17460     17459     17461
     17460     17459     17462     17461     17459     17462     17459     17462     17463
     17459     17462     17464     17459     17462     17465     17463     17462     17464
     17463     17462     17465     17464     17462     17465     17462     17465     17466
     17462     17465     17467     17462     17465     17468     17466     17465     17467
     17466     17465     17468     17467     17465     17468     17465     17468     17469
     17465     17468     17470     17465     17468     17471     17469     17468     17470
     17469     17468     17471     17470     17468     17471     17468     17471     17472
     17468     17471     17473     17468     17471     17474     17472     17471     17473
     17472     17471     17474     17473     17471     17474     17425     17475     17476
     17425     17475     17477     17425     17475     17478     17476     17475     17477
     17476     17475     17478     17477     17475     17478     17475     17478     17479
     17475     17478     17480     17475     17478     17481     17479     17478     17480
     17479     17478     17481     17480     17478     17481     17478     17481     17482
     17478     17481     17483     17478     17481     17484     17482     17481     17483
     17482     17481     17484     17483     17481     17484     17481     17484     17485
     17481     17484     17486     17481     17484     17487     17485     17484     17486
     17485     17484     17487     17486     17484     17487     17484     17487     17488
     17484     17487     17489     17484     17487     17490     17488     17487     17489
     17488     17487     17490     17489     17487     17490     17487     17490     17491
     17487     17490     17492     17487     17490     17493     17491     17490     17492
     17491     17490     17493     17492     17490     17493     17490     17493     17494
     17490     17493     17495     17490     17493     17496     17494     17493     17495
     17494     17493     17496     17495     17493     17496     17493     17496     17497
     17493     17496     17498     17493     17496     17499     17497     17496     17498
     17497     17496     17499     17498     17496     17499     17496     17499     17500
     17496     17499     17501     17496     17499     17502     17500     17499     17501
     17500     17499     17502     17501     17499     17502     17499     17502     17503
     17499     17502     17504     17499     17502     17505     17503     17502     17504
     17503     17502     17505     17504     17502     17505     17502     17505     17506
     17502     17505     17507     17502     17505     17508     17506     17505     17507
     17506     17505     17508     17507     17505     17508     17505     17508     17509
     17505     17508     17510     17505     17508     17511     17509     17508     17510
     17509     17508     17511     17510     17508     17511     17508     17511     17512
     17508     17511     17513     17508     17511     17514     17512     17511     17513
     17512     17511     17514     17513     17511     17514     17511     17514     17515
     17511     17514     17516     17511     17514     17517     17515     17514     17516
     17515     17514     17517     17516     17514     17517     17514     17517     17518
     17514     17517     17519     17514     17517     17520     17518     17517     17519
     17518     17517     17520     17519     17517     17520     17517     17520     17521
     17517     17520     17522     17517     17520     17523     17521     17520     17522
     17521     17520     17523     17522     17520     17523      4512      4511      4513
      4512      4511      4515      4512      4511      4557      4513      4511      4515
      4513      4511      4557      4515      4511      4557      4511      4513      4514
      4511      4515      4516      4511      4515      4517      4511      4515      4518
      4516      4515      4517      4516      4515      4518      4517      4515      4518
      4515      4518      4519      4515      4518      4549      4519      4518      4549
      4518      4519      4520      4518      4519      4521      4520      4519      4521
      4519      4521      4522      4519      4521      4523      4519      4521      4524
      4522      4521      4523      4522      4521      4524      4523      4521      4524
      4521      4524      4525      4521      4524      4526      4521      4524      4547
      4525      4524      4526      4525      4524      4547      4526      4524      4547
      4524      4526      4527      4524      4526      4528      4524      4526      4536
      4527      4526      4528      4527      4526      4536      4528      4526      4536
      4526      4528      4529      4526      4528      4530      4526      4528      4531
      4529      4528      4530      4529      4528      4531      4530      4528      4531
      4528      4531      4532      4528      4531      4533      4528      4531      4534
      4532      4531      4533      4532      4531      4534      4533      4531      4534
      4531      4534      4535      4531      4534      4536      4531      4534      4560
      4535      4534      4536      4535      4534      4560      4536      4534      4560
      4526      4536      4534      4526      4536      4537      4526      4536      4541
      4534      4536      4537      4534      4536      4541      4537      4536      4541
      4536      4537      4538      4536      4537      4539      4536      4537      4540
      4538      4537      4539      4538      4537      4540      4539      4537      4540
      4536      4541      4542      4536      4541      4543      4536      4541      4544
      4542      4541      4543      4542      4541      4544      4543      4541      4544
      4541      4544      4545      4541      4544      4546      4541      4544      4547
      4545      4544      4546      4545      4544      4547      4546      4544      4547
      4524      4547      4544      4524      4547      4548      4524      4547      4549
      4544      4547      4548      4544      4547      4549      4548      4547      4549
      4518      4549      4547      4518      4549      4550      4518      4549      4554
      4547      4549      4550      4547      4549      4554      4550      4549      4554
      4549      4550      4551      4549      4550      4552      4549      4550      4553
      4551      4550      4552      4551      4550      4553      4552      4550      4553
      4549      4554      4555      4549      4554      4556      4549      4554      4557
      4555      4554      4556      4555      4554      4557      4556      4554      4557
      4511      4557      4554      4511      4557      4558      4511      4557      4559
      4554      4557      4558      4554      4557      4559      4558      4557      4559
      4534      4560      4561      4534      4560      4562      4534      4560      4566
      4561      4560      4562      4561      4560      4566      4562      4560      4566
      4560      4562      4563      4560      4562      4564      4560      4562      4565
      4563      4562      4564      4563      4562      4565      4564      4562      4565
      4560      4566      4567      4560      4566      4568      4560      4566      4569
      4567      4566      4568      4567      4566      4569      4568      4566      4569
      4566      4569      4570      4566      4569      4571      4566      4569      4572
      4570      4569      4571      4570      4569      4572      4571      4569      4572
      4569      4572      4573      4569      4572      4574      4569      4572      4575
      4573      4572      4574      4573      4572      4575      4574      4572      4575
      4572      4575      4576      4572      4575      4577      4572      4575      4581
      4576      4575      4577      4576      4575      4581      4577      4575      4581
      4575      4577      4578      4575      4577      4579      4575      4577      4580
      4578      4577      4579      4578      4577      4580      4579      4577      4580
      4575      4581      4582      4575      4581      4583      4575      4581      4584
      4582      4581      4583      4582      4581      4584      4583      4581      4584
      1066      1065      1067      1066      1065      1068      1066      1065      1069
      1067      1065      1068      1067      1065      1069      1068      1065      1069
      1065      1069      1070      1065      1069      1071      1065      1069      1074
      1070      1069      1071      1070      1069      1074      1071      1069      1074
      1069      1071      1072      1069      1071      1073      1072      1071      1073
      1069      1074      1075      1069      1074      1076      1069      1074      1080
      1075      1074      1076      1075      1074      1080      1076      1074      1080
      1078      1077      1079      1078      1077      1080      1078      1077      1081
      1079      1077      1080      1079      1077      1081      1080      1077      1081
      1074      1080      1077      1077      1081      1082      1081      1082      1083
      1081      1082      1084      1081      1082      1085      1083      1082      1084
      1083      1082      1085      1084      1082      1085      1082      1085      1086
      1082      1085      1087      1082      1085      1093      1086      1085      1087
      1086      1085      1093      1087      1085      1093      1085      1087      1088
      1087      1088      1089      1087      1088      1090      1089      1088      1090
      1088      1090      1091      1088      1090      1092      1088      1090      1102
      1091      1090      1092      1091      1090      1102      1092      1090      1102
      1085      1093      1094      1085      1093      1095      1085      1093      1096
      1094      1093      1095      1094      1093      1096      1095      1093      1096
      1093      1096      1097      1096      1097      1098      1096      1097      1099
      1098      1097      1099      1097      1099      1100      1097      1099      1101
      1097      1099      1149      1100      1099      1101      1100      1099      1149
      1101      1099      1149      1090      1102      1103      1090      1102      1104
      1090      1102      1105      1103      1102      1104      1103      1102      1105
      1104      1102      1105      1102      1105      1106      1102      1105      1107
      1102      1105      1108      1106      1105      1107      1106      1105      1108
      1107      1105      1108      1105      1108      1109      1105      1108      1110
      1109      1108      1110      1108      1110      1111      1108      1110      1112
      1111      1110      1112      1110      1112      1113      1110      1112      1114
      1110      1112      1115      1113      1112      1114      1113      1112      1115
      1114      1112      1115      1112      1115      1116      1112      1115      1117
      1116      1115      1117      1115      1117      1118      1115      1117      1119
      1118      1117      1119      1117      1119      1120      1117      1119      1121
      1117      1119      1122      1120      1119      1121      1120      1119      1122
      1121      1119      1122      1119      1122      1123      1119      1122      1124
      1123      1122      1124      1122      1124      1125      1122      1124      1126
      1125      1124      1126      1124      1126      1127      1124      1126      1128
      1124      1126      1129      1127      1126      1128      1127      1126      1129
      1128      1126      1129      1126      1129      1130      1126      1129      1131
      1130      1129      1131      1129      1131      1132      1129      1131      1133
      1132      1131      1133      1131      1133      1134      1131      1133      1135
      1131      1133      1136      1134      1133      1135      1134      1133      1136
      1135      1133      1136      1133      1136      1137      1133      1136      1138
      1133      1136      1139      1137      1136      1138      1137      1136      1139
      1138      1136      1139      1136      1139      1140      1136      1139      1141
      1136      1139      1142      1140      1139      1141      1140      1139      1142
      1141      1139      1142      1139      1142      1143      1139      1142      1144
      1139      1142      1145      1143      1142      1144      1143      1142      1145
      1144      1142      1145      1142      1145      1146      1142      1145      1147
      1142      1145      1148      1146      1145      1147      1146      1145      1148
      1147      1145      1148      1099      1149      1150      1099      1149      1151
      1099      1149      1152      1150      1149      1151      1150      1149      1152
      1151      1149      1152      1149      1152      1153      1149      1152      1154
      1149      1152      1155      1153      1152      1154      1153      1152      1155
      1154      1152      1155      1152      1155      1156      1152      1155      1157
      1152      1155      1158      1156      1155      1157      1156      1155      1158
      1157      1155      1158      1155      1158      1159      1155      1158      1160
      1155      1158      1161      1159      1158      1160      1159      1158      1161
      1160      1158      1161      1158      1161      1162      1158      1161      1163
      1158      1161      1164      1162      1161      1163      1162      1161      1164
      1163      1161      1164      1161      1164      1165      1161      1164      1166
      1161      1164      1167      1165      1164      1166      1165      1164      1167
      1166      1164      1167      1164      1167      1168      1164      1167      1169
      1164      1167      1170      1168      1167      1169      1168      1167      1170
      1169      1167      1170      1167      1170      1171      1167      1170      1172
      1167      1170      1173      1171      1170      1172      1171      1170      1173
      1172      1170      1173      1170      1173      1174      1170      1173      1175
      1170      1173      1176      1174      1173      1175      1174      1173      1176
      1175      1173      1176      1173      1176      1177      1173      1176      1178
      1173      1176      1179      1177      1176      1178      1177      1176      1179
      1178      1176      1179      1176      1179      1180      1176      1179      1181
      1176      1179      1182      1180      1179      1181      1180      1179      1182
      1181      1179      1182      1179      1182      1183      1179      1182      1184
      1179      1182      1185      1183      1182      1184      1183      1182      1185
      1184      1182      1185      1182      1185      1186      1182      1185      1187
      1182      1185      1188      1186      1185      1187      1186      1185      1188
      1187      1185      1188      1185      1188      1189      1185      1188      1190
      1185      1188      1191      1189      1188      1190      1189      1188      1191
      1190      1188      1191      1188      1191      1192      1188      1191      1193
      1188      1191      1194      1192      1191      1193      1192      1191      1194
      1193      1191      1194      1191      1194      1195      1191      1194      1196
      1191      1194      1197      1195      1194      1196      1195      1194      1197
      1196      1194      1197      4586      4585      4587      4586      4585      4589
      4586      4585      4631      4587      4585      4589      4587      4585      4631
      4589      4585      4631      4585      4587      4588      4585      4589      4590
      4585      4589      4591      4585      4589      4592      4590      4589      4591
      4590      4589      4592      4591      4589      4592      4589      4592      4593
      4589      4592      4623      4593      4592      4623      4592      4593      4594
      4592      4593      4595      4594      4593      4595      4593      4595      4596
      4593      4595      4597      4593      4595      4598      4596      4595      4597
      4596      4595      4598      4597      4595      4598      4595      4598      4599
      4595      4598      4600      4595      4598      4621      4599      4598      4600
      4599      4598      4621      4600      4598      4621      4598      4600      4601
      4598      4600      4602      4598      4600      4610      4601      4600      4602
      4601      4600      4610      4602      4600      4610      4600      4602      4603
      4600      4602      4604      4600      4602      4605      4603      4602      4604
      4603      4602      4605      4604      4602      4605      4602      4605      4606
      4602      4605      4607      4602      4605      4608      4606      4605      4607
      4606      4605      4608      4607      4605      4608      4605      4608      4609
      4605      4608      4610      4605      4608      4634      4609      4608      4610
      4609      4608      4634      4610      4608      4634      4600      4610      4608
      4600      4610      4611      4600      4610      4615      4608      4610      4611
      4608      4610      4615      4611      4610      4615      4610      4611      4612
      4610      4611      4613      4610      4611      4614      4612      4611      4613
      4612      4611      4614      4613      4611      4614      4610      4615      4616
      4610      4615      4617      4610      4615      4618      4616      4615      4617
      4616      4615      4618      4617      4615      4618      4615      4618      4619
      4615      4618      4620      4615      4618      4621      4619      4618      4620
      4619      4618      4621      4620      4618      4621      4598      4621      4618
      4598      4621      4622      4598      4621      4623      4618      4621      4622
      4618      4621      4623      4622      4621      4623      4592      4623      4621
      4592      4623      4624      4592      4623      4628      4621      4623      4624
      4621      4623      4628      4624      4623      4628      4623      4624      4625
      4623      4624      4626      4623      4624      4627      4625      4624      4626
      4625      4624      4627      4626      4624      4627      4623      4628      4629
      4623      4628      4630      4623      4628      4631      4629      4628      4630
      4629      4628      4631      4630      4628      4631      4585      4631      4628
      4585      4631      4632      4585      4631      4633      4628      4631      4632
      4628      4631      4633      4632      4631      4633      4608      4634      4635
      4608      4634      4636      4608      4634      4640      4635      4634      4636
      4635      4634      4640      4636      4634      4640      4634      4636      4637
      4634      4636      4638      4634      4636      4639      4637      4636      4638
      4637      4636      4639      4638      4636      4639      4634      4640      4641
      4634      4640      4642      4634      4640      4643      4641      4640      4642
      4641      4640      4643      4642      4640      4643      4640      4643      4644
      4640      4643      4645      4640      4643      4646      4644      4643      4645
      4644      4643      4646      4645      4643      4646      4643      4646      4647
      4643      4646      4648      4643      4646      4649      4647      4646      4648
      4647      4646      4649      4648      4646      4649      4646      4649      4650
      4646      4649      4651      4646      4649      4655      4650      4649      4651
      4650      4649      4655      4651      4649      4655      4649      4651      4652
      4649      4651      4653      4649      4651      4654      4652      4651      4653
      4652      4651      4654      4653      4651      4654      4649      4655      4656
      4649      4655      4657      4649      4655      4658      4656      4655      4657
      4656      4655      4658      4657      4655      4658     12809     12808     12813
     12809     12808     12817     12809     12808     12821     12813     12808     12817
     12813     12808     12821     12817     12808     12821     12808     12809     12810
     12808     12809     12811     12808     12809     12812     12810     12809     12811
     12810     12809     12812     12811     12809     12812     12808     12813     12814
     12808     12813     12815     12808     12813     12816     12814     12813     12815
     12814     12813     12816     12815     12813     12816     12808     12817     12818
     12808     12817     12819     12808     12817     12820     12818     12817     12819
     12818     12817     12820     12819     12817     12820     12808     12821     12822
     12808     12821     12823     12808     12821     12824     12822     12821     12823
     12822     12821     12824     12823     12821     12824     12821     12824     12825
     12821     12824     12826     12821     12824     12831     12825     12824     12826
     12825     12824     12831     12826     12824     12831     12828     12827     12829
     12828     12827     12830     12828     12827     12831     12829     12827     12830
     12829     12827     12831     12830     12827     12831     12827     12830     12832
     12824     12831     12827     12830     12832     12833     12830     12832     12834
     12830     12832     12837     12833     12832     12834     12833     12832     12837
     12834     12832     12837     12836     12835     12837     12836     12835     12887
     12837     12835     12887     12832     12837     12835     12832     12837     12838
     12832     12837     12839     12835     12837     12838     12835     12837     12839
     12838     12837     12839     12837     12839     12840     12837     12839     12841
     12837     12839     12843     12840     12839     12841     12840     12839     12843
     12841     12839     12843     12839     12841     12842     12839     12843     12844
     12839     12843     12845     12844     12843     12845     12843     12845     12846
     12843     12845     12847     12846     12845     12847     12845     12847     12848
     12845     12847     12849     12845     12847     12850     12848     12847     12849
     12848     12847     12850     12849     12847     12850     12847     12850     12851
     12847     12850     12852     12847     12850     12853     12851     12850     12852
     12851     12850     12853     12852     12850     12853     12850     12853     12854
     12850     12853     12855     12850     12853     12856     12854     12853     12855
     12854     12853     12856     12855     12853     12856     12853     12856     12857
     12853     12856     12858     12853     12856     12859     12857     12856     12858
     12857     12856     12859     12858     12856     12859     12856     12859     12860
     12856     12859     12861     12856     12859     12862     12860     12859     12861
     12860     12859     12862     12861     12859     12862     12859     12862     12863
     12859     12862     12864     12859     12862     12865     12863     12862     12864
     12863     12862     12865     12864     12862     12865     12862     12865     12866
     12862     12865     12867     12862     12865     12868     12866     12865     12867
     12866     12865     12868     12867     12865     12868     12865     12868     12869
     12865     12868     12870     12865     12868     12871     12869     12868     12870
     12869     12868     12871     12870     12868     12871     12868     12871     12872
     12868     12871     12873     12868     12871     12874     12872     12871     12873
     12872     12871     12874     12873     12871     12874     12871     12874     12875
     12871     12874     12876     12871     12874     12877     12875     12874     12876
     12875     12874     12877     12876     12874     12877     12874     12877     12878
     12874     12877     12879     12874     12877     12880     12878     12877     12879
     12878     12877     12880     12879     12877     12880     12877     12880     12881
     12877     12880     12882     12877     12880     12883     12881     12880     12882
     12881     12880     12883     12882     12880     12883     12880     12883     12884
     12880     12883     12885     12880     12883     12886     12884     12883     12885
     12884     12883     12886     12885     12883     12886     12835     12887     12888
     12835     12887     12889     12888     12887     12889     12887     12889     12890
     12887     12889     12891     12887     12889     12892     12890     12889     12891
     12890     12889     12892     12891     12889     12892     12889     12892     12893
     12889     12892     12894     12889     12892     12895     12893     12892     12894
     12893     12892     12895     12894     12892     12895     12892     12895     12896
     12892     12895     12897     12892     12895     12898     12896     12895     12897
     12896     12895     12898     12897     12895     12898     12895     12898     12899
     12895     12898     12900     12895     12898     12901     12899     12898     12900
     12899     12898     12901     12900     12898     12901     12898     12901     12902
     12898     12901     12903     12898     12901     12904     12902     12901     12903
     12902     12901     12904     12903     12901     12904     12901     12904     12905
     12901     12904     12906     12901     12904     12907     12905     12904     12906
     12905     12904     12907     12906     12904     12907     12904     12907     12908
     12904     12907     12909     12904     12907     12910     12908     12907     12909
     12908     12907     12910     12909     12907     12910     12907     12910     12911
     12907     12910     12912     12911     12910     12912     12910     12912     12913
     12910     12912     12914     12913     12912     12914     12912     12914     12915
     12912     12914     12916     12912     12914     12917     12915     12914     12916
     12915     12914     12917     12916     12914     12917     12914     12917     12918
     12914     12917     12919     12914     12917     12920     12918     12917     12919
     12918     12917     12920     12919     12917     12920     12917     12920     12921
     12917     12920     12922     12917     12920     12923     12921     12920     12922
     12921     12920     12923     12922     12920     12923     12920     12923     12924
     12920     12923     12925     12920     12923     12926     12924     12923     12925
     12924     12923     12926     12925     12923     12926     12923     12926     12927
     12923     12926     12928     12923     12926     12929     12927     12926     12928
     12927     12926     12929     12928     12926     12929     12926     12929     12930
     12926     12929     12931     12926     12929     12932     12930     12929     12931
     12930     12929     12932     12931     12929     12932     12929     12932     12933
     12929     12932     12934     12929     12932     12935     12933     12932     12934
     12933     12932     12935     12934     12932     12935     12932     12935     12936
     12932     12935     12937     12932     12935     12938     12936     12935     12937
     12936     12935     12938     12937     12935     12938     17525     17524     17526
     17525     17524     17527     17525     17524     17528     17526     17524     17527
     17526     17524     17528     17527     17524     17528     17524     17528     17529
     17524     17528     17530     17524     17528     17531     17529     17528     17530
     17529     17528     17531     17530     17528     17531     17528     17531     17532
     17528     17531     17533     17528     17531     17537     17532     17531     17533
     17532     17531     17537     17533     17531     17537     17535     17534     17536
     17535     17534     17537     17535     17534     17538     17536     17534     17537
     17536     17534     17538     17537     17534     17538     17531     17537     17534
     17534     17538     17539     17538     17539     17540     17538     17539     17541
     17538     17539     17542     17540     17539     17541     17540     17539     17542
     17541     17539     17542     17539     17542     17543     17539     17542     17544
     17539     17542     17550     17543     17542     17544     17543     17542     17550
     17544     17542     17550     17542     17544     17545     17544     17545     17546
     17544     17545     17547     17546     17545     17547     17545     17547     17548
     17545     17547     17549     17545     17547     17559     17548     17547     17549
     17548     17547     17559     17549     17547     17559     17542     17550     17551
     17542     17550     17552     17542     17550     17553     17551     17550     17552
     17551     17550     17553     17552     17550     17553     17550     17553     17554
     17553     17554     17555     17553     17554     17556     17555     17554     17556
     17554     17556     17557     17554     17556     17558     17554     17556     17606
     17557     17556     17558     17557     17556     17606     17558     17556     17606
     17547     17559     17560     17547     17559     17561     17547     17559     17562
     17560     17559     17561     17560     17559     17562     17561     17559     17562
     17559     17562     17563     17559     17562     17564     17559     17562     17565
     17563     17562     17564     17563     17562     17565     17564     17562     17565
     17562     17565     17566     17562     17565     17567     17566     17565     17567
     17565     17567     17568     17565     17567     17569     17568     17567     17569
     17567     17569     17570     17567     17569     17571     17567     17569     17572
     17570     17569     17571     17570     17569     17572     17571     17569     17572
     17569     17572     17573     17569     17572     17574     17573     17572     17574
     17572     17574     17575     17572     17574     17576     17575     17574     17576
     17574     17576     17577     17574     17576     17578     17574     17576     17579
     17577     17576     17578     17577     17576     17579     17578     17576     17579
     17576     17579     17580     17576     17579     17581     17580     17579     17581
     17579     17581     17582     17579     17581     17583     17582     17581     17583
     17581     17583     17584     17581     17583     17585     17581     17583     17586
     17584     17583     17585     17584     17583     17586     17585     17583     17586
     17583     17586     17587     17583     17586     17588     17587     17586     17588
     17586     17588     17589     17586     17588     17590     17589     17588     17590
     17588     17590     17591     17588     17590     17592     17588     17590     17593
     17591     17590     17592     17591     17590     17593     17592     17590     17593
     17590     17593     17594     17590     17593     17595     17590     17593     17596
     17594     17593     17595     17594     17593     17596     17595     17593     17596
     17593     17596     17597     17593     17596     17598     17593     17596     17599
     17597     17596     17598     17597     17596     17599     17598     17596     17599
     17596     17599     17600     17596     17599     17601     17596     17599     17602
     17600     17599     17601     17600     17599     17602     17601     17599     17602
     17599     17602     17603     17599     17602     17604     17599     17602     17605
     17603     17602     17604     17603     17602     17605     17604     17602     17605
     17556     17606     17607     17556     17606     17608     17556     17606     17609
     17607     17606     17608     17607     17606     17609     17608     17606     17609
     17606     17609     17610     17606     17609     17611     17606     17609     17612
     17610     17609     17611     17610     17609     17612     17611     17609     17612
     17609     17612     17613     17609     17612     17614     17609     17612     17615
     17613     17612     17614     17613     17612     17615     17614     17612     17615
     17612     17615     17616     17612     17615     17617     17612     17615     17618
     17616     17615     17617     17616     17615     17618     17617     17615     17618
     17615     17618     17619     17615     17618     17620     17615     17618     17621
     17619     17618     17620     17619     17618     17621     17620     17618     17621
     17618     17621     17622     17618     17621     17623     17618     17621     17624
     17622     17621     17623     17622     17621     17624     17623     17621     17624
     17621     17624     17625     17621     17624     17626     17621     17624     17627
     17625     17624     17626     17625     17624     17627     17626     17624     17627
     17624     17627     17628     17624     17627     17629     17624     17627     17630
     17628     17627     17629     17628     17627     17630     17629     17627     17630
     17627     17630     17631     17627     17630     17632     17627     17630     17633
     17631     17630     17632     17631     17630     17633     17632     17630     17633
     17630     17633     17634     17630     17633     17635     17630     17633     17636
     17634     17633     17635     17634     17633     17636     17635     17633     17636
     17633     17636     17637     17633     17636     17638     17633     17636     17639
     17637     17636     17638     17637     17636     17639     17638     17636     17639
     17636     17639     17640     17636     17639     17641     17636     17639     17642
     17640     17639     17641     17640     17639     17642     17641     17639     17642
     17639     17642     17643     17639     17642     17644     17639     17642     17645
     17643     17642     17644     17643     17642     17645     17644     17642     17645
     17642     17645     17646     17642     17645     17647     17642     17645     17648
     17646     17645     17647     17646     17645     17648     17647     17645     17648
     17645     17648     17649     17645     17648     17650     17645     17648     17651
     17649     17648     17650     17649     17648     17651     17650     17648     17651
     17648     17651     17652     17648     17651     17653     17648     17651     17654
     17652     17651     17653     17652     17651     17654     17653     17651     17654
      7461      7460      7462      7461      7460      7463      7461      7460      7464
      7462      7460      7463      7462      7460      7464      7463      7460      7464
      7460      7464      7465      7460      7464      7466      7460      7464      7467
      7465      7464      7466      7465      7464      7467      7466      7464      7467
      7464      7467      7468      7464      7467      7469      7464      7467      7473
      7468      7467      7469      7468      7467      7473      7469      7467      7473
      7471      7470      7472      7471      7470      7473      7471      7470      7474
      7472      7470      7473      7472      7470      7474      7473      7470      7474
      7467      7473      7470      7470      7474      7475      7474      7475      7476
      7474      7475      7477      7474      7475      7478      7476      7475      7477
      7476      7475      7478      7477      7475      7478      7475      7478      7479
      7475      7478      7480      7475      7478      7486      7479      7478      7480
      7479      7478      7486      7480      7478      7486      7478      7480      7481
      7480      7481      7482      7480      7481      7483      7482      7481      7483
      7481      7483      7484      7481      7483      7485      7481      7483      7495
      7484      7483      7485      7484      7483      7495      7485      7483      7495
      7478      7486      7487      7478      7486      7488      7478      7486      7489
      7487      7486      7488      7487      7486      7489      7488      7486      7489
      7486      7489      7490      7489      7490      7491      7489      7490      7492
      7491      7490      7492      7490      7492      7493      7490      7492      7494
      7490      7492      7542      7493      7492      7494      7493      7492      7542
      7494      7492      7542      7483      7495      7496      7483      7495      7497
      7483      7495      7498      7496      7495      7497      7496      7495      7498
      7497      7495      7498      7495      7498      7499      7495      7498      7500
      7495      7498      7501      7499      7498      7500      7499      7498      7501
      7500      7498      7501      7498      7501      7502      7498      7501      7503
      7498      7501      7504      7502      7501      7503      7502      7501      7504
      7503      7501      7504      7501      7504      7505      7501      7504      7506
      7501      7504      7507      7505      7504      7506      7505      7504      7507
      7506      7504      7507      7504      7507      7508      7504      7507      7509
      7504      7507      7510      7508      7507      7509      7508      7507      7510
      7509      7507      7510      7507      7510      7511      7507      7510      7512
      7507      7510      7513      7511      7510      7512      7511      7510      7513
      7512      7510      7513      7510      7513      7514      7510      7513      7515
      7514      7513      7515      7513      7515      7516      7513      7515      7517
      7516      7515      7517      7515      7517      7518      7515      7517      7519
      7515      7517      7520      7518      7517      7519      7518      7517      7520
      7519      7517      7520      7517      7520      7521      7517      7520      7522
      7517      7520      7523      7521      7520      7522      7521      7520      7523
      7522      7520      7523      7520      7523      7524      7520      7523      7525
      7520      7523      7526      7524      7523      7525      7524      7523      7526
      7525      7523      7526      7523      7526      7527      7523      7526      7528
      7523      7526      7529      7527      7526      7528      7527      7526      7529
      7528      7526      7529      7526      7529      7530      7526      7529      7531
      7526      7529      7532      7530      7529      7531      7530      7529      7532
      7531      7529      7532      7529      7532      7533      7529      7532      7534
      7529      7532      7535      7533      7532      7534      7533      7532      7535
      7534      7532      7535      7532      7535      7536      7532      7535      7537
      7532      7535      7538      7536      7535      7537      7536      7535      7538
      7537      7535      7538      7535      7538      7539      7535      7538      7540
      7535      7538      7541      7539      7538      7540      7539      7538      7541
      7540      7538      7541      7492      7542      7543      7492      7542      7544
      7492      7542      7545      7543      7542      7544      7543      7542      7545
      7544      7542      7545      7542      7545      7546      7542      7545      7547
      7542      7545      7548      7546      7545      7547      7546      7545      7548
      7547      7545      7548      7545      7548      7549      7545      7548      7550
      7545      7548      7551      7549      7548      7550      7549      7548      7551
      7550      7548      7551      7548      7551      7552      7548      7551      7553
      7548      7551      7554      7552      7551      7553      7552      7551      7554
      7553      7551      7554      7551      7554      7555      7551      7554      7556
      7551      7554      7557      7555      7554      7556      7555      7554      7557
      7556      7554      7557      7554      7557      7558      7554      7557      7559
      7554      7557      7560      7558      7557      7559      7558      7557      7560
      7559      7557      7560      7557      7560      7561      7557      7560      7562
      7557      7560      7563      7561      7560      7562      7561      7560      7563
      7562      7560      7563      7560      7563      7564      7560      7563      7565
      7560      7563      7566      7564      7563      7565      7564      7563      7566
      7565      7563      7566      7563      7566      7567      7563      7566      7568
      7563      7566      7569      7567      7566      7568      7567      7566      7569
      7568      7566      7569      7566      7569      7570      7566      7569      7571
      7566      7569      7572      7570      7569      7571      7570      7569      7572
      7571      7569      7572      7569      7572      7573      7569      7572      7574
      7569      7572      7575      7573      7572      7574      7573      7572      7575
      7574      7572      7575      7572      7575      7576      7572      7575      7577
      7572      7575      7578      7576      7575      7577      7576      7575      7578
      7577      7575      7578      7575      7578      7579      7575      7578      7580
      7575      7578      7581      7579      7578      7580      7579      7578      7581
      7580      7578      7581      7578      7581      7582      7578      7581      7583
      7578      7581      7584      7582      7581      7583      7582      7581      7584
      7583      7581      7584      7581      7584      7585      7581      7584      7586
      7581      7584      7587      7585      7584      7586      7585      7584      7587
      7586      7584      7587      7584      7587      7588      7584      7587      7589
      7584      7587      7590      7588      7587      7589      7588      7587      7590
      7589      7587      7590      8798      8797      8801      8798      8797      8805
      8798      8797      8809      8801      8797      8805      8801      8797      8809
      8805      8797      8809      8797      8798      8799      8797      8798      8800
      8797      8798      8813      8799      8798      8800      8799      8798      8813
      8800      8798      8813      8797      8801      8802      8797      8801      8803
      8797      8801      8804      8802      8801      8803      8802      8801      8804
      8803      8801      8804      8797      8805      8806      8797      8805      8807
      8797      8805      8808      8806      8805      8807      8806      8805      8808
      8807      8805      8808      8797      8809      8810      8797      8809      8811
      8797      8809      8812      8810      8809      8811      8810      8809      8812
      8811      8809      8812      8798      8813      8814      8798      8813      8815
      8798      8813      8819      8814      8813      8815      8814      8813      8819
      8815      8813      8819      8817      8816      8818      8817      8816      8819
      8817      8816      8820      8818      8816      8819      8818      8816      8820
      8819      8816      8820      8813      8819      8816      8816      8820      8821
      8820      8821      8822      8820      8821      8823      8820      8821      8824
      8822      8821      8823      8822      8821      8824      8823      8821      8824
      8821      8824      8825      8821      8824      8826      8821      8824      8832
      8825      8824      8826      8825      8824      8832      8826      8824      8832
      8824      8826      8827      8826      8827      8828      8826      8827      8829
      8828      8827      8829      8827      8829      8830      8827      8829      8831
      8827      8829      8841      8830      8829      8831      8830      8829      8841
      8831      8829      8841      8824      8832      8833      8824      8832      8834
      8824      8832      8835      8833      8832      8834      8833      8832      8835
      8834      8832      8835      8832      8835      8836      8835      8836      8837
      8835      8836      8838      8837      8836      8838      8836      8838      8839
      8836      8838      8840      8836      8838      8888      8839      8838      8840
      8839      8838      8888      8840      8838      8888      8829      8841      8842
      8829      8841      8843      8829      8841      8844      8842      8841      8843
      8842      8841      8844      8843      8841      8844      8841      8844      8845
      8841      8844      8846      8841      8844      8847      8845      8844      8846
      8845      8844      8847      8846      8844      8847      8844      8847      8848
      8844      8847      8849      8848      8847      8849      8847      8849      8850
      8847      8849      8851      8850      8849      8851      8849      8851      8852
      8849      8851      8853      8849      8851      8854      8852      8851      8853
      8852      8851      8854      8853      8851      8854      8851      8854      8855
      8851      8854      8856      8855      8854      8856      8854      8856      8857
      8854      8856      8858      8857      8856      8858      8856      8858      8859
      8856      8858      8860      8856      8858      8861      8859      8858      8860
      8859      8858      8861      8860      8858      8861      8858      8861      8862
      8858      8861      8863      8862      8861      8863      8861      8863      8864
      8861      8863      8865      8864      8863      8865      8863      8865      8866
      8863      8865      8867      8863      8865      8868      8866      8865      8867
      8866      8865      8868      8867      8865      8868      8865      8868      8869
      8865      8868      8870      8869      8868      8870      8868      8870      8871
      8868      8870      8872      8871      8870      8872      8870      8872      8873
      8870      8872      8874      8870      8872      8875      8873      8872      8874
      8873      8872      8875      8874      8872      8875      8872      8875      8876
      8872      8875      8877      8872      8875      8878      8876      8875      8877
      8876      8875      8878      8877      8875      8878      8875      8878      8879
      8875      8878      8880      8875      8878      8881      8879      8878      8880
      8879      8878      8881      8880      8878      8881      8878      8881      8882
      8878      8881      8883      8878      8881      8884      8882      8881      8883
      8882      8881      8884      8883      8881      8884      8881      8884      8885
      8881      8884      8886      8881      8884      8887      8885      8884      8886
      8885      8884      8887      8886      8884      8887      8838      8888      8889
      8838      8888      8890      8838      8888      8891      8889      8888      8890
      8889      8888      8891      8890      8888      8891      8888      8891      8892
      8888      8891      8893      8888      8891      8894      8892      8891      8893
      8892      8891      8894      8893      8891      8894      8891      8894      8895
      8891      8894      8896      8891      8894      8897      8895      8894      8896
      8895      8894      8897      8896      8894      8897      8894      8897      8898
      8894      8897      8899      8894      8897      8900      8898      8897      8899
      8898      8897      8900      8899      8897      8900      8897      8900      8901
      8897      8900      8902      8897      8900      8903      8901      8900      8902
      8901      8900      8903      8902      8900      8903      8900      8903      8904
      8900      8903      8905      8900      8903      8906      8904      8903      8905
      8904      8903      8906      8905      8903      8906      8903      8906      8907
      8903      8906      8908      8903      8906      8909      8907      8906      8908
      8907      8906      8909      8908      8906      8909      8906      8909      8910
      8906      8909      8911      8906      8909      8912      8910      8909      8911
      8910      8909      8912      8911      8909      8912      8909      8912      8913
      8909      8912      8914      8909      8912      8915      8913      8912      8914
      8913      8912      8915      8914      8912      8915      8912      8915      8916
      8912      8915      8917      8912      8915      8918      8916      8915      8917
      8916      8915      8918      8917      8915      8918      8915      8918      8919
      8915      8918      8920      8915      8918      8921      8919      8918      8920
      8919      8918      8921      8920      8918      8921      8918      8921      8922
      8918      8921      8923      8918      8921      8924      8922      8921      8923
      8922      8921      8924      8923      8921      8924      8921      8924      8925
      8921      8924      8926      8921      8924      8927      8925      8924      8926
      8925      8924      8927      8926      8924      8927      8924      8927      8928
      8924      8927      8929      8924      8927      8930      8928      8927      8929
      8928      8927      8930      8929      8927      8930      8927      8930      8931
      8927      8930      8932      8927      8930      8933      8931      8930      8932
      8931      8930      8933      8932      8930      8933      8930      8933      8934
      8930      8933      8935      8930      8933      8936      8934      8933      8935
      8934      8933      8936      8935      8933      8936      4660      4659      4661
      4660      4659      4663      4660      4659      4705      4661      4659      4663
      4661      4659      4705      4663      4659      4705      4659      4661      4662
      4659      4663      4664      4659      4663      4665      4659      4663      4666
      4664      4663      4665      4664      4663      4666      4665      4663      4666
      4663      4666      4667      4663      4666      4697      4667      4666      4697
      4666      4667      4668      4666      4667      4669      4668      4667      4669
      4667      4669      4670      4667      4669      4671      4667      4669      4672
      4670      4669      4671      4670      4669      4672      4671      4669      4672
      4669      4672      4673      4669      4672      4674      4669      4672      4695
      4673      4672      4674      4673      4672      4695      4674      4672      4695
      4672      4674      4675      4672      4674      4676      4672      4674      4684
      4675      4674      4676      4675      4674      4684      4676      4674      4684
      4674      4676      4677      4674      4676      4678      4674      4676      4679
      4677      4676      4678      4677      4676      4679      4678      4676      4679
      4676      4679      4680      4676      4679      4681      4676      4679      4682
      4680      4679      4681      4680      4679      4682      4681      4679      4682
      4679      4682      4683      4679      4682      4684      4679      4682      4708
      4683      4682      4684      4683      4682      4708      4684      4682      4708
      4674      4684      4682      4674      4684      4685      4674      4684      4689
      4682      4684      4685      4682      4684      4689      4685      4684      4689
      4684      4685      4686      4684      4685      4687      4684      4685      4688
      4686      4685      4687      4686      4685      4688      4687      4685      4688
      4684      4689      4690      4684      4689      4691      4684      4689      4692
      4690      4689      4691      4690      4689      4692      4691      4689      4692
      4689      4692      4693      4689      4692      4694      4689      4692      4695
      4693      4692      4694      4693      4692      4695      4694      4692      4695
      4672      4695      4692      4672      4695      4696      4672      4695      4697
      4692      4695      4696      4692      4695      4697      4696      4695      4697
      4666      4697      4695      4666      4697      4698      4666      4697      4702
      4695      4697      4698      4695      4697      4702      4698      4697      4702
      4697      4698      4699      4697      4698      4700      4697      4698      4701
      4699      4698      4700      4699      4698      4701      4700      4698      4701
      4697      4702      4703      4697      4702      4704      4697      4702      4705
      4703      4702      4704      4703      4702      4705      4704      4702      4705
      4659      4705      4702      4659      4705      4706      4659      4705      4707
      4702      4705      4706      4702      4705      4707      4706      4705      4707
      4682      4708      4709      4682      4708      4710      4682      4708      4714
      4709      4708      4710      4709      4708      4714      4710      4708      4714
      4708      4710      4711      4708      4710      4712      4708      4710      4713
      4711      4710      4712      4711      4710      4713      4712      4710      4713
      4708      4714      4715      4708      4714      4716      4708      4714      4717
      4715      4714      4716      4715      4714      4717      4716      4714      4717
      4714      4717      4718      4714      4717      4719      4714      4717      4720
      4718      4717      4719      4718      4717      4720      4719      4717      4720
      4717      4720      4721      4717      4720      4722      4717      4720      4723
      4721      4720      4722      4721      4720      4723      4722      4720      4723
      4720      4723      4724      4720      4723      4725      4720      4723      4729
      4724      4723      4725      4724      4723      4729      4725      4723      4729
      4723      4725      4726      4723      4725      4727      4723      4725      4728
      4726      4725      4727      4726      4725      4728      4727      4725      4728
      4723      4729      4730      4723      4729      4731      4723      4729      4732
      4730      4729      4731      4730      4729      4732      4731      4729      4732
      8938      8937      8941      8938      8937      8945      8938      8937      8949
      8941      8937      8945      8941      8937      8949      8945      8937      8949
      8937      8938      8939      8937      8938      8940      8937      8938      8953
      8939      8938      8940      8939      8938      8953      8940      8938      8953
      8937      8941      8942      8937      8941      8943      8937      8941      8944
      8942      8941      8943      8942      8941      8944      8943      8941      8944
      8937      8945      8946      8937      8945      8947      8937      8945      8948
      8946      8945      8947      8946      8945      8948      8947      8945      8948
      8937      8949      8950      8937      8949      8951      8937      8949      8952
      8950      8949      8951      8950      8949      8952      8951      8949      8952
      8938      8953      8954      8938      8953      8955      8938      8953      8959
      8954      8953      8955      8954      8953      8959      8955      8953      8959
      8957      8956      8958      8957      8956      8959      8957      8956      8960
      8958      8956      8959      8958      8956      8960      8959      8956      8960
      8953      8959      8956      8956      8960      8961      8960      8961      8962
      8960      8961      8963      8960      8961      8964      8962      8961      8963
      8962      8961      8964      8963      8961      8964      8961      8964      8965
      8961      8964      8966      8961      8964      8972      8965      8964      8966
      8965      8964      8972      8966      8964      8972      8964      8966      8967
      8966      8967      8968      8966      8967      8969      8968      8967      8969
      8967      8969      8970      8967      8969      8971      8967      8969      8981
      8970      8969      8971      8970      8969      8981      8971      8969      8981
      8964      8972      8973      8964      8972      8974      8964      8972      8975
      8973      8972      8974      8973      8972      8975      8974      8972      8975
      8972      8975      8976      8975      8976      8977      8975      8976      8978
      8977      8976      8978      8976      8978      8979      8976      8978      8980
      8976      8978      9028      8979      8978      8980      8979      8978      9028
      8980      8978      9028      8969      8981      8982      8969      8981      8983
      8969      8981      8984      8982      8981      8983      8982      8981      8984
      8983      8981      8984      8981      8984      8985      8981      8984      8986
      8981      8984      8987      8985      8984      8986      8985      8984      8987
      8986      8984      8987      8984      8987      8988      8984      8987      8989
      8988      8987      8989      8987      8989      8990      8987      8989      8991
      8990      8989      8991      8989      8991      8992      8989      8991      8993
      8989      8991      8994      8992      8991      8993      8992      8991      8994
      8993      8991      8994      8991      8994      8995      8991      8994      8996
      8995      8994      8996      8994      8996      8997      8994      8996      8998
      8997      8996      8998      8996      8998      8999      8996      8998      9000
      8996      8998      9001      8999      8998      9000      8999      8998      9001
      9000      8998      9001      8998      9001      9002      8998      9001      9003
      9002      9001      9003      9001      9003      9004      9001      9003      9005
      9004      9003      9005      9003      9005      9006      9003      9005      9007
      9003      9005      9008      9006      9005      9007      9006      9005      9008
      9007      9005      9008      9005      9008      9009      9005      9008      9010
      9009      9008      9010      9008      9010      9011      9008      9010      9012
      9011      9010      9012      9010      9012      9013      9010      9012      9014
      9010      9012      9015      9013      9012      9014      9013      9012      9015
      9014      9012      9015      9012      9015      9016      9012      9015      9017
      9012      9015      9018      9016      9015      9017      9016      9015      9018
      9017      9015      9018      9015      9018      9019      9015      9018      9020
      9015      9018      9021      9019      9018      9020      9019      9018      9021
      9020      9018      9021      9018      9021      9022      9018      9021      9023
      9018      9021      9024      9022      9021      9023      9022      9021      9024
      9023      9021      9024      9021      9024      9025      9021      9024      9026
      9021      9024      9027      9025      9024      9026      9025      9024      9027
      9026      9024      9027      8978      9028      9029      8978      9028      9030
      8978      9028      9031      9029      9028      9030      9029      9028      9031
      9030      9028      9031      9028      9031      9032      9028      9031      9033
      9028      9031      9034      9032      9031      9033      9032      9031      9034
      9033      9031      9034      9031      9034      9035      9031      9034      9036
      9031      9034      9037      9035      9034      9036      9035      9034      9037
      9036      9034      9037      9034      9037      9038      9034      9037      9039
      9034      9037      9040      9038      9037      9039      9038      9037      9040
      9039      9037      9040      9037      9040      9041      9037      9040      9042
      9037      9040      9043      9041      9040      9042      9041      9040      9043
      9042      9040      9043      9040      9043      9044      9040      9043      9045
      9040      9043      9046      9044      9043      9045      9044      9043      9046
      9045      9043      9046      9043      9046      9047      9043      9046      9048
      9043      9046      9049      9047      9046      9048      9047      9046      9049
      9048      9046      9049      9046      9049      9050      9046      9049      9051
      9046      9049      9052      9050      9049      9051      9050      9049      9052
      9051      9049      9052      9049      9052      9053      9049      9052      9054
      9049      9052      9055      9053      9052      9054      9053      9052      9055
      9054      9052      9055      9052      9055      9056      9052      9055      9057
      9052      9055      9058      9056      9055      9057      9056      9055      9058
      9057      9055      9058      9055      9058      9059      9055      9058      9060
      9055      9058      9061      9059      9058      9060      9059      9058      9061
      9060      9058      9061      9058      9061      9062      9058      9061      9063
      9058      9061      9064      9062      9061      9063      9062      9061      9064
      9063      9061      9064      9061      9064      9065      9061      9064      9066
      9061      9064      9067      9065      9064      9066      9065      9064      9067
      9066      9064      9067      9064      9067      9068      9064      9067      9069
      9064      9067      9070      9068      9067      9069      9068      9067      9070
      9069      9067      9070      9067      9070      9071      9067      9070      9072
      9067      9070      9073      9071      9070      9072      9071      9070      9073
      9072      9070      9073      9070      9073      9074      9070      9073      9075
      9070      9073      9076      9074      9073      9075      9074      9073      9076
      9075      9073      9076      9078      9077      9081      9078      9077      9085
      9078      9077      9089      9081      9077      9085      9081      9077      9089
      9085      9077      9089      9077      9078      9079      9077      9078      9080
      9077      9078      9093      9079      9078      9080      9079      9078      9093
      9080      9078      9093      9077      9081      9082      9077      9081      9083
      9077      9081      9084      9082      9081      9083      9082      9081      9084
      9083      9081      9084      9077      9085      9086      9077      9085      9087
      9077      9085      9088      9086      9085      9087      9086      9085      9088
      9087      9085      9088      9077      9089      9090      9077      9089      9091
      9077      9089      9092      9090      9089      9091      9090      9089      9092
      9091      9089      9092      9078      9093      9094      9078      9093      9095
      9078      9093      9099      9094      9093      9095      9094      9093      9099
      9095      9093      9099      9097      9096      9098      9097      9096      9099
      9097      9096      9100      9098      9096      9099      9098      9096      9100
      9099      9096      9100      9093      9099      9096      9096      9100      9101
      9100      9101      9102      9100      9101      9103      9100      9101      9104
      9102      9101      9103      9102      9101      9104      9103      9101      9104
      9101      9104      9105      9101      9104      9106      9101      9104      9112
      9105      9104      9106      9105      9104      9112      9106      9104      9112
      9104      9106      9107      9106      9107      9108      9106      9107      9109
      9108      9107      9109      9107      9109      9110      9107      9109      9111
      9107      9109      9121      9110      9109      9111      9110      9109      9121
      9111      9109      9121      9104      9112      9113      9104      9112      9114
      9104      9112      9115      9113      9112      9114      9113      9112      9115
      9114      9112      9115      9112      9115      9116      9115      9116      9117
      9115      9116      9118      9117      9116      9118      9116      9118      9119
      9116      9118      9120      9116      9118      9168      9119      9118      9120
      9119      9118      9168      9120      9118      9168      9109      9121      9122
      9109      9121      9123      9109      9121      9124      9122      9121      9123
      9122      9121      9124      9123      9121      9124      9121      9124      9125
      9121      9124      9126      9121      9124      9127      9125      9124      9126
      9125      9124      9127      9126      9124      9127      9124      9127      9128
      9124      9127      9129      9128      9127      9129      9127      9129      9130
      9127      9129      9131      9130      9129      9131      9129      9131      9132
      9129      9131      9133      9129      9131      9134      9132      9131      9133
      9132      9131      9134      9133      9131      9134      9131      9134      9135
      9131      9134      9136      9135      9134      9136      9134      9136      9137
      9134      9136      9138      9137      9136      9138      9136      9138      9139
      9136      9138      9140      9136      9138      9141      9139      9138      9140
      9139      9138      9141      9140      9138      9141      9138      9141      9142
      9138      9141      9143      9142      9141      9143      9141      9143      9144
      9141      9143      9145      9144      9143      9145      9143      9145      9146
      9143      9145      9147      9143      9145      9148      9146      9145      9147
      9146      9145      9148      9147      9145      9148      9145      9148      9149
      9145      9148      9150      9149      9148      9150      9148      9150      9151
      9148      9150      9152      9151      9150      9152      9150      9152      9153
      9150      9152      9154      9150      9152      9155      9153      9152      9154
      9153      9152      9155      9154      9152      9155      9152      9155      9156
      9152      9155      9157      9152      9155      9158      9156      9155      9157
      9156      9155      9158      9157      9155      9158      9155      9158      9159
      9155      9158      9160      9155      9158      9161      9159      9158      9160
      9159      9158      9161      9160      9158      9161      9158      9161      9162
      9158      9161      9163      9158      9161      9164      9162      9161      9163
      9162      9161      9164      9163      9161      9164      9161      9164      9165
      9161      9164      9166      9161      9164      9167      9165      9164      9166
      9165      9164      9167      9166      9164      9167      9118      9168      9169
      9118      9168      9170      9118      9168      9171      9169      9168      9170
      9169      9168      9171      9170      9168      9171      9168      9171      9172
      9168      9171      9173      9168      9171      9174      9172      9171      9173
      9172      9171      9174      9173      9171      9174      9171      9174      9175
      9171      9174      9176      9171      9174      9177      9175      9174      9176
      9175      9174      9177      9176      9174      9177      9174      9177      9178
      9174      9177      9179      9174      9177      9180      9178      9177      9179
      9178      9177      9180      9179      9177      9180      9177      9180      9181
      9177      9180      9182      9177      9180      9183      9181      9180      9182
      9181      9180      9183      9182      9180      9183      9180      9183      9184
      9180      9183      9185      9180      9183      9186      9184      9183      9185
      9184      9183      9186      9185      9183      9186      9183      9186      9187
      9183      9186      9188      9183      9186      9189      9187      9186      9188
      9187      9186      9189      9188      9186      9189      9186      9189      9190
      9186      9189      9191      9186      9189      9192      9190      9189      9191
      9190      9189      9192      9191      9189      9192      9189      9192      9193
      9189      9192      9194      9189      9192      9195      9193      9192      9194
      9193      9192      9195      9194      9192      9195      9192      9195      9196
      9192      9195      9197      9192      9195      9198      9196      9195      9197
      9196      9195      9198      9197      9195      9198      9195      9198      9199
      9195      9198      9200      9195      9198      9201      9199      9198      9200
      9199      9198      9201      9200      9198      9201      9198      9201      9202
      9198      9201      9203      9198      9201      9204      9202      9201      9203
      9202      9201      9204      9203      9201      9204      9201      9204      9205
      9201      9204      9206      9201      9204      9207      9205      9204      9206
      9205      9204      9207      9206      9204      9207      9204      9207      9208
      9204      9207      9209      9204      9207      9210      9208      9207      9209
      9208      9207      9210      9209      9207      9210      9207      9210      9211
      9207      9210      9212      9207      9210      9213      9211      9210      9212
      9211      9210      9213      9212      9210      9213      9210      9213      9214
      9210      9213      9215      9210      9213      9216      9214      9213      9215
      9214      9213      9216      9215      9213      9216      1199      1198      1200
      1199      1198      1201      1199      1198      1202      1200      1198      1201
      1200      1198      1202      1201      1198      1202      1198      1202      1203
      1198      1202      1204      1198      1202      1207      1203      1202      1204
      1203      1202      1207      1204      1202      1207      1202      1204      1205
      1202      1204      1206      1205      1204      1206      1202      1207      1208
      1202      1207      1209      1202      1207      1213      1208      1207      1209
      1208      1207      1213      1209      1207      1213      1211      1210      1212
      1211      1210      1213      1211      1210      1214      1212      1210      1213
      1212      1210      1214      1213      1210      1214      1207      1213      1210
      1210      1214      1215      1214      1215      1216      1214      1215      1217
      1214      1215      1218      1216      1215      1217      1216      1215      1218
      1217      1215      1218      1215      1218      1219      1215      1218      1220
      1215      1218      1226      1219      1218      1220      1219      1218      1226
      1220      1218      1226      1218      1220      1221      1220      1221      1222
      1220      1221      1223      1222      1221      1223      1221      1223      1224
      1221      1223      1225      1221      1223      1235      1224      1223      1225
      1224      1223      1235      1225      1223      1235      1218      1226      1227
      1218      1226      1228      1218      1226      1229      1227      1226      1228
      1227      1226      1229      1228      1226      1229      1226      1229      1230
      1229      1230      1231      1229      1230      1232      1231      1230      1232
      1230      1232      1233      1230      1232      1234      1230      1232      1282
      1233      1232      1234      1233      1232      1282      1234      1232      1282
      1223      1235      1236      1223      1235      1237      1223      1235      1238
      1236      1235      1237      1236      1235      1238      1237      1235      1238
      1235      1238      1239      1235      1238      1240      1235      1238      1241
      1239      1238      1240      1239      1238      1241      1240      1238      1241
      1238      1241      1242      1238      1241      1243      1242      1241      1243
      1241      1243      1244      1241      1243      1245      1244      1243      1245
      1243      1245      1246      1243      1245      1247      1243      1245      1248
      1246      1245      1247      1246      1245      1248      1247      1245      1248
      1245      1248      1249      1245      1248      1250      1249      1248      1250
      1248      1250      1251      1248      1250      1252      1251      1250      1252
      1250      1252      1253      1250      1252      1254      1250      1252      1255
      1253      1252      1254      1253      1252      1255      1254      1252      1255
      1252      1255      1256      1252      1255      1257      1256      1255      1257
      1255      1257      1258      1255      1257      1259      1258      1257      1259
      1257      1259      1260      1257      1259      1261      1257      1259      1262
      1260      1259      1261      1260      1259      1262      1261      1259      1262
      1259      1262      1263      1259      1262      1264      1263      1262      1264
      1262      1264      1265      1262      1264      1266      1265      1264      1266
      1264      1266      1267      1264      1266      1268      1264      1266      1269
      1267      1266      1268      1267      1266      1269      1268      1266      1269
      1266      1269      1270      1266      1269      1271      1266      1269      1272
      1270      1269      1271      1270      1269      1272      1271      1269      1272
      1269      1272      1273      1269      1272      1274      1269      1272      1275
      1273      1272      1274      1273      1272      1275      1274      1272      1275
      1272      1275      1276      1272      1275      1277      1272      1275      1278
      1276      1275      1277      1276      1275      1278      1277      1275      1278
      1275      1278      1279      1275      1278      1280      1275      1278      1281
      1279      1278      1280      1279      1278      1281      1280      1278      1281
      1232      1282      1283      1232      1282      1284      1232      1282      1285
      1283      1282      1284      1283      1282      1285      1284      1282      1285
      1282      1285      1286      1282      1285      1287      1282      1285      1288
      1286      1285      1287      1286      1285      1288      1287      1285      1288
      1285      1288      1289      1285      1288      1290      1285      1288      1291
      1289      1288      1290      1289      1288      1291      1290      1288      1291
      1288      1291      1292      1288      1291      1293      1288      1291      1294
      1292      1291      1293      1292      1291      1294      1293      1291      1294
      1291      1294      1295      1291      1294      1296      1291      1294      1297
      1295      1294      1296      1295      1294      1297      1296      1294      1297
      1294      1297      1298      1294      1297      1299      1294      1297      1300
      1298      1297      1299      1298      1297      1300      1299      1297      1300
      1297      1300      1301      1297      1300      1302      1297      1300      1303
      1301      1300      1302      1301      1300      1303      1302      1300      1303
      1300      1303      1304      1300      1303      1305      1300      1303      1306
      1304      1303      1305      1304      1303      1306      1305      1303      1306
      1303      1306      1307      1303      1306      1308      1303      1306      1309
      1307      1306      1308      1307      1306      1309      1308      1306      1309
      1306      1309      1310      1306      1309      1311      1306      1309      1312
      1310      1309      1311      1310      1309      1312      1311      1309      1312
      1309      1312      1313      1309      1312      1314      1309      1312      1315
      1313      1312      1314      1313      1312      1315      1314      1312      1315
      1312      1315      1316      1312      1315      1317      1312      1315      1318
      1316      1315      1317      1316      1315      1318      1317      1315      1318
      1315      1318      1319      1315      1318      1320      1315      1318      1321
      1319      1318      1320      1319      1318      1321      1320      1318      1321
      1318      1321      1322      1318      1321      1323      1318      1321      1324
      1322      1321      1323      1322      1321      1324      1323      1321      1324
      1321      1324      1325      1321      1324      1326      1321      1324      1327
      1325      1324      1326      1325      1324      1327      1326      1324      1327
      1324      1327      1328      1324      1327      1329      1324      1327      1330
      1328      1327      1329      1328      1327      1330      1329      1327      1330
      4734      4733      4735      4734      4733      4737      4734      4733      4779
      4735      4733      4737      4735      4733      4779      4737      4733      4779
      4733      4735      4736      4733      4737      4738      4733      4737      4739
      4733      4737      4740      4738      4737      4739      4738      4737      4740
      4739      4737      4740      4737      4740      4741      4737      4740      4771
      4741      4740      4771      4740      4741      4742      4740      4741      4743
      4742      4741      4743      4741      4743      4744      4741      4743      4745
      4741      4743      4746      4744      4743      4745      4744      4743      4746
      4745      4743      4746      4743      4746      4747      4743      4746      4748
      4743      4746      4769      4747      4746      4748      4747      4746      4769
      4748      4746      4769      4746      4748      4749      4746      4748      4750
      4746      4748      4758      4749      4748      4750      4749      4748      4758
      4750      4748      4758      4748      4750      4751      4748      4750      4752
      4748      4750      4753      4751      4750      4752      4751      4750      4753
      4752      4750      4753      4750      4753      4754      4750      4753      4755
      4750      4753      4756      4754      4753      4755      4754      4753      4756
      4755      4753      4756      4753      4756      4757      4753      4756      4758
      4753      4756      4782      4757      4756      4758      4757      4756      4782
      4758      4756      4782      4748      4758      4756      4748      4758      4759
      4748      4758      4763      4756      4758      4759      4756      4758      4763
      4759      4758      4763      4758      4759      4760      4758      4759      4761
      4758      4759      4762      4760      4759      4761      4760      4759      4762
      4761      4759      4762      4758      4763      4764      4758      4763      4765
      4758      4763      4766      4764      4763      4765      4764      4763      4766
      4765      4763      4766      4763      4766      4767      4763      4766      4768
      4763      4766      4769      4767      4766      4768      4767      4766      4769
      4768      4766      4769      4746      4769      4766      4746      4769      4770
      4746      4769      4771      4766      4769      4770      4766      4769      4771
      4770      4769      4771      4740      4771      4769      4740      4771      4772
      4740      4771      4776      4769      4771      4772      4769      4771      4776
      4772      4771      4776      4771      4772      4773      4771      4772      4774
      4771      4772      4775      4773      4772      4774      4773      4772      4775
      4774      4772      4775      4771      4776      4777      4771      4776      4778
      4771      4776      4779      4777      4776      4778      4777      4776      4779
      4778      4776      4779      4733      4779      4776      4733      4779      4780
      4733      4779      4781      4776      4779      4780      4776      4779      4781
      4780      4779      4781      4756      4782      4783      4756      4782      4784
      4756      4782      4788      4783      4782      4784      4783      4782      4788
      4784      4782      4788      4782      4784      4785      4782      4784      4786
      4782      4784      4787      4785      4784      4786      4785      4784      4787
      4786      4784      4787      4782      4788      4789      4782      4788      4790
      4782      4788      4791      4789      4788      4790      4789      4788      4791
      4790      4788      4791      4788      4791      4792      4788      4791      4793
      4788      4791      4794      4792      4791      4793      4792      4791      4794
      4793      4791      4794      4791      4794      4795      4791      4794      4796
      4791      4794      4797      4795      4794      4796      4795      4794      4797
      4796      4794      4797      4794      4797      4798      4794      4797      4799
      4794      4797      4803      4798      4797      4799      4798      4797      4803
      4799      4797      4803      4797      4799      4800      4797      4799      4801
      4797      4799      4802      4800      4799      4801      4800      4799      4802
      4801      4799      4802      4797      4803      4804      4797      4803      4805
      4797      4803      4806      4804      4803      4805      4804      4803      4806
      4805      4803      4806     12940     12939     12944     12940     12939     12948
     12940     12939     12952     12944     12939     12948     12944     12939     12952
     12948     12939     12952     12939     12940     12941     12939     12940     12942
     12939     12940     12943     12941     12940     12942     12941     12940     12943
     12942     12940     12943     12939     12944     12945     12939     12944     12946
     12939     12944     12947     12945     12944     12946     12945     12944     12947
     12946     12944     12947     12939     12948     12949     12939     12948     12950
     12939     12948     12951     12949     12948     12950     12949     12948     12951
     12950     12948     12951     12939     12952     12953     12939     12952     12954
     12939     12952     12955     12953     12952     12954     12953     12952     12955
     12954     12952     12955     12952     12955     12956     12952     12955     12957
     12952     12955     12962     12956     12955     12957     12956     12955     12962
     12957     12955     12962     12959     12958     12960     12959     12958     12961
     12959     12958     12962     12960     12958     12961     12960     12958     12962
     12961     12958     12962     12958     12961     12963     12955     12962     12958
     12961     12963     12964     12961     12963     12965     12961     12963     12968
     12964     12963     12965     12964     12963     12968     12965     12963     12968
     12967     12966     12968     12967     12966     13018     12968     12966     13018
     12963     12968     12966     12963     12968     12969     12963     12968     12970
     12966     12968     12969     12966     12968     12970     12969     12968     12970
     12968     12970     12971     12968     12970     12972     12968     12970     12974
     12971     12970     12972     12971     12970     12974     12972     12970     12974
     12970     12972     12973     12970     12974     12975     12970     12974     12976
     12975     12974     12976     12974     12976     12977     12974     12976     12978
     12977     12976     12978     12976     12978     12979     12976     12978     12980
     12976     12978     12981     12979     12978     12980     12979     12978     12981
     12980     12978     12981     12978     12981     12982     12978     12981     12983
     12978     12981     12984     12982     12981     12983     12982     12981     12984
     12983     12981     12984     12981     12984     12985     12981     12984     12986
     12981     12984     12987     12985     12984     12986     12985     12984     12987
     12986     12984     12987     12984     12987     12988     12984     12987     12989
     12984     12987     12990     12988     12987     12989     12988     12987     12990
     12989     12987     12990     12987     12990     12991     12987     12990     12992
     12987     12990     12993     12991     12990     12992     12991     12990     12993
     12992     12990     12993     12990     12993     12994     12990     12993     12995
     12990     12993     12996     12994     12993     12995     12994     12993     12996
     12995     12993     12996     12993     12996     12997     12993     12996     12998
     12993     12996     12999     12997     12996     12998     12997     12996     12999
     12998     12996     12999     12996     12999     13000     12996     12999     13001
     12996     12999     13002     13000     12999     13001     13000     12999     13002
     13001     12999     13002     12999     13002     13003     12999     13002     13004
     12999     13002     13005     13003     13002     13004     13003     13002     13005
     13004     13002     13005     13002     13005     13006     13002     13005     13007
     13002     13005     13008     13006     13005     13007     13006     13005     13008
     13007     13005     13008     13005     13008     13009     13005     13008     13010
     13005     13008     13011     13009     13008     13010     13009     13008     13011
     13010     13008     13011     13008     13011     13012     13008     13011     13013
     13008     13011     13014     13012     13011     13013     13012     13011     13014
     13013     13011     13014     13011     13014     13015     13011     13014     13016
     13011     13014     13017     13015     13014     13016     13015     13014     13017
     13016     13014     13017     12966     13018     13019     12966     13018     13020
     13019     13018     13020     13018     13020     13021     13018     13020     13022
     13018     13020     13023     13021     13020     13022     13021     13020     13023
     13022     13020     13023     13020     13023     13024     13020     13023     13025
     13020     13023     13026     13024     13023     13025     13024     13023     13026
     13025     13023     13026     13023     13026     13027     13023     13026     13028
     13023     13026     13029     13027     13026     13028     13027     13026     13029
     13028     13026     13029     13026     13029     13030     13026     13029     13031
     13026     13029     13032     13030     13029     13031     13030     13029     13032
     13031     13029     13032     13029     13032     13033     13029     13032     13034
     13029     13032     13035     13033     13032     13034     13033     13032     13035
     13034     13032     13035     13032     13035     13036     13032     13035     13037
     13032     13035     13038     13036     13035     13037     13036     13035     13038
     13037     13035     13038     13035     13038     13039     13035     13038     13040
     13035     13038     13041     13039     13038     13040     13039     13038     13041
     13040     13038     13041     13038     13041     13042     13038     13041     13043
     13042     13041     13043     13041     13043     13044     13041     13043     13045
     13044     13043     13045     13043     13045     13046     13043     13045     13047
     13043     13045     13048     13046     13045     13047     13046     13045     13048
     13047     13045     13048     13045     13048     13049     13045     13048     13050
     13045     13048     13051     13049     13048     13050     13049     13048     13051
     13050     13048     13051     13048     13051     13052     13048     13051     13053
     13048     13051     13054     13052     13051     13053     13052     13051     13054
     13053     13051     13054     13051     13054     13055     13051     13054     13056
     13051     13054     13057     13055     13054     13056     13055     13054     13057
     13056     13054     13057     13054     13057     13058     13054     13057     13059
     13054     13057     13060     13058     13057     13059     13058     13057     13060
     13059     13057     13060     13057     13060     13061     13057     13060     13062
     13057     13060     13063     13061     13060     13062     13061     13060     13063
     13062     13060     13063     13060     13063     13064     13060     13063     13065
     13060     13063     13066     13064     13063     13065     13064     13063     13066
     13065     13063     13066     13063     13066     13067     13063     13066     13068
     13063     13066     13069     13067     13066     13068     13067     13066     13069
     13068     13066     13069      1332      1331      1333      1332      1331      1334
      1332      1331      1335      1333      1331      1334      1333      1331      1335
      1334      1331      1335      1331      1335      1336      1331      1335      1337
      1331      1335      1340      1336      1335      1337      1336      1335      1340
      1337      1335      1340      1335      1337      1338      1335      1337      1339
      1338      1337      1339      1335      1340      1341      1335      1340      1342
      1335      1340      1346      1341      1340      1342      1341      1340      1346
      1342      1340      1346      1344      1343      1345      1344      1343      1346
      1344      1343      1347      1345      1343      1346      1345      1343      1347
      1346      1343      1347      1340      1346      1343      1343      1347      1348
      1347      1348      1349      1347      1348      1350      1347      1348      1351
      1349      1348      1350      1349      1348      1351      1350      1348      1351
      1348      1351      1352      1348      1351      1353      1348      1351      1359
      1352      1351      1353      1352      1351      1359      1353      1351      1359
      1351      1353      1354      1353      1354      1355      1353      1354      1356
      1355      1354      1356      1354      1356      1357      1354      1356      1358
      1354      1356      1368      1357      1356      1358      1357      1356      1368
      1358      1356      1368      1351      1359      1360      1351      1359      1361
      1351      1359      1362      1360      1359      1361      1360      1359      1362
      1361      1359      1362      1359      1362      1363      1362      1363      1364
      1362      1363      1365      1364      1363      1365      1363      1365      1366
      1363      1365      1367      1363      1365      1415      1366      1365      1367
      1366      1365      1415      1367      1365      1415      1356      1368      1369
      1356      1368      1370      1356      1368      1371      1369      1368      1370
      1369      1368      1371      1370      1368      1371      1368      1371      1372
      1368      1371      1373      1368      1371      1374      1372      1371      1373
      1372      1371      1374      1373      1371      1374      1371      1374      1375
      1371      1374      1376      1375      1374      1376      1374      1376      1377
      1374      1376      1378      1377      1376      1378      1376      1378      1379
      1376      1378      1380      1376      1378      1381      1379      1378      1380
      1379      1378      1381      1380      1378      1381      1378      1381      1382
      1378      1381      1383      1382      1381      1383      1381      1383      1384
      1381      1383      1385      1384      1383      1385      1383      1385      1386
      1383      1385      1387      1383      1385      1388      1386      1385      1387
      1386      1385      1388      1387      1385      1388      1385      1388      1389
      1385      1388      1390      1389      1388      1390      1388      1390      1391
      1388      1390      1392      1391      1390      1392      1390      1392      1393
      1390      1392      1394      1390      1392      1395      1393      1392      1394
      1393      1392      1395      1394      1392      1395      1392      1395      1396
      1392      1395      1397      1396      1395      1397      1395      1397      1398
      1395      1397      1399      1398      1397      1399      1397      1399      1400
      1397      1399      1401      1397      1399      1402      1400      1399      1401
      1400      1399      1402      1401      1399      1402      1399      1402      1403
      1399      1402      1404      1399      1402      1405      1403      1402      1404
      1403      1402      1405      1404      1402      1405      1402      1405      1406
      1402      1405      1407      1402      1405      1408      1406      1405      1407
      1406      1405      1408      1407      1405      1408      1405      1408      1409
      1405      1408      1410      1405      1408      1411      1409      1408      1410
      1409      1408      1411      1410      1408      1411      1408      1411      1412
      1408      1411      1413      1408      1411      1414      1412      1411      1413
      1412      1411      1414      1413      1411      1414      1365      1415      1416
      1365      1415      1417      1365      1415      1418      1416      1415      1417
      1416      1415      1418      1417      1415      1418      1415      1418      1419
      1415      1418      1420      1415      1418      1421      1419      1418      1420
      1419      1418      1421      1420      1418      1421      1418      1421      1422
      1418      1421      1423      1418      1421      1424      1422      1421      1423
      1422      1421      1424      1423      1421      1424      1421      1424      1425
      1421      1424      1426      1421      1424      1427      1425      1424      1426
      1425      1424      1427      1426      1424      1427      1424      1427      1428
      1424      1427      1429      1424      1427      1430      1428      1427      1429
      1428      1427      1430      1429      1427      1430      1427      1430      1431
      1427      1430      1432      1427      1430      1433      1431      1430      1432
      1431      1430      1433      1432      1430      1433      1430      1433      1434
      1430      1433      1435      1430      1433      1436      1434      1433      1435
      1434      1433      1436      1435      1433      1436      1433      1436      1437
      1433      1436      1438      1433      1436      1439      1437      1436      1438
      1437      1436      1439      1438      1436      1439      1436      1439      1440
      1436      1439      1441      1436      1439      1442      1440      1439      1441
      1440      1439      1442      1441      1439      1442      1439      1442      1443
      1439      1442      1444      1439      1442      1445      1443      1442      1444
      1443      1442      1445      1444      1442      1445      1442      1445      1446
      1442      1445      1447      1442      1445      1448      1446      1445      1447
      1446      1445      1448      1447      1445      1448      1445      1448      1449
      1445      1448      1450      1445      1448      1451      1449      1448      1450
      1449      1448      1451      1450      1448      1451      1448      1451      1452
      1448      1451      1453      1448      1451      1454      1452      1451      1453
      1452      1451      1454      1453      1451      1454      1451      1454      1455
      1451      1454      1456      1451      1454      1457      1455      1454      1456
      1455      1454      1457      1456      1454      1457      1454      1457      1458
      1454      1457      1459      1454      1457      1460      1458      1457      1459
      1458      1457      1460      1459      1457      1460      1457      1460      1461
      1457      1460      1462      1457      1460      1463      1461      1460      1462
      1461      1460      1463      1462      1460      1463      7592      7591      7593
      7592      7591      7594      7592      7591      7595      7593      7591      7594
      7593      7591      7595      7594      7591      7595      7591      7595      7596
      7591      7595      7597      7591      7595      7598      7596      7595      7597
      7596      7595      7598      7597      7595      7598      7595      7598      7599
      7595      7598      7600      7595      7598      7604      7599      7598      7600
      7599      7598      7604      7600      7598      7604      7602      7601      7603
      7602      7601      7604      7602      7601      7605      7603      7601      7604
      7603      7601      7605      7604      7601      7605      7598      7604      7601
      7601      7605      7606      7605      7606      7607      7605      7606      7608
      7605      7606      7609      7607      7606      7608      7607      7606      7609
      7608      7606      7609      7606      7609      7610      7606      7609      7611
      7606      7609      7617      7610      7609      7611      7610      7609      7617
      7611      7609      7617      7609      7611      7612      7611      7612      7613
      7611      7612      7614      7613      7612      7614      7612      7614      7615
      7612      7614      7616      7612      7614      7626      7615      7614      7616
      7615      7614      7626      7616      7614      7626      7609      7617      7618
      7609      7617      7619      7609      7617      7620      7618      7617      7619
      7618      7617      7620      7619      7617      7620      7617      7620      7621
      7620      7621      7622      7620      7621      7623      7622      7621      7623
      7621      7623      7624      7621      7623      7625      7621      7623      7673
      7624      7623      7625      7624      7623      7673      7625      7623      7673
      7614      7626      7627      7614      7626      7628      7614      7626      7629
      7627      7626      7628      7627      7626      7629      7628      7626      7629
      7626      7629      7630      7626      7629      7631      7626      7629      7632
      7630      7629      7631      7630      7629      7632      7631      7629      7632
      7629      7632      7633      7629      7632      7634      7629      7632      7635
      7633      7632      7634      7633      7632      7635      7634      7632      7635
      7632      7635      7636      7632      7635      7637      7632      7635      7638
      7636      7635      7637      7636      7635      7638      7637      7635      7638
      7635      7638      7639      7635      7638      7640      7635      7638      7641
      7639      7638      7640      7639      7638      7641      7640      7638      7641
      7638      7641      7642      7638      7641      7643      7638      7641      7644
      7642      7641      7643      7642      7641      7644      7643      7641      7644
      7641      7644      7645      7641      7644      7646      7645      7644      7646
      7644      7646      7647      7644      7646      7648      7647      7646      7648
      7646      7648      7649      7646      7648      7650      7646      7648      7651
      7649      7648      7650      7649      7648      7651      7650      7648      7651
      7648      7651      7652      7648      7651      7653      7648      7651      7654
      7652      7651      7653      7652      7651      7654      7653      7651      7654
      7651      7654      7655      7651      7654      7656      7651      7654      7657
      7655      7654      7656      7655      7654      7657      7656      7654      7657
      7654      7657      7658      7654      7657      7659      7654      7657      7660
      7658      7657      7659      7658      7657      7660      7659      7657      7660
      7657      7660      7661      7657      7660      7662      7657      7660      7663
      7661      7660      7662      7661      7660      7663      7662      7660      7663
      7660      7663      7664      7660      7663      7665      7660      7663      7666
      7664      7663      7665      7664      7663      7666      7665      7663      7666
      7663      7666      7667      7663      7666      7668      7663      7666      7669
      7667      7666      7668      7667      7666      7669      7668      7666      7669
      7666      7669      7670      7666      7669      7671      7666      7669      7672
      7670      7669      7671      7670      7669      7672      7671      7669      7672
      7623      7673      7674      7623      7673      7675      7623      7673      7676
      7674      7673      7675      7674      7673      7676      7675      7673      7676
      7673      7676      7677      7673      7676      7678      7673      7676      7679
      7677      7676      7678      7677      7676      7679      7678      7676      7679
      7676      7679      7680      7676      7679      7681      7676      7679      7682
      7680      7679      7681      7680      7679      7682      7681      7679      7682
      7679      7682      7683      7679      7682      7684      7679      7682      7685
      7683      7682      7684      7683      7682      7685      7684      7682      7685
      7682      7685      7686      7682      7685      7687      7682      7685      7688
      7686      7685      7687      7686      7685      7688      7687      7685      7688
      7685      7688      7689      7685      7688      7690      7685      7688      7691
      7689      7688      7690      7689      7688      7691      7690      7688      7691
      7688      7691      7692      7688      7691      7693      7688      7691      7694
      7692      7691      7693      7692      7691      7694      7693      7691      7694
      7691      7694      7695      7691      7694      7696      7691      7694      7697
      7695      7694      7696      7695      7694      7697      7696      7694      7697
      7694      7697      7698      7694      7697      7699      7694      7697      7700
      7698      7697      7699      7698      7697      7700      7699      7697      7700
      7697      7700      7701      7697      7700      7702      7697      7700      7703
      7701      7700      7702      7701      7700      7703      7702      7700      7703
      7700      7703      7704      7700      7703      7705      7700      7703      7706
      7704      7703      7705      7704      7703      7706      7705      7703      7706
      7703      7706      7707      7703      7706      7708      7703      7706      7709
      7707      7706      7708      7707      7706      7709      7708      7706      7709
      7706      7709      7710      7706      7709      7711      7706      7709      7712
      7710      7709      7711      7710      7709      7712      7711      7709      7712
      7709      7712      7713      7709      7712      7714      7709      7712      7715
      7713      7712      7714      7713      7712      7715      7714      7712      7715
      7712      7715      7716      7712      7715      7717      7712      7715      7718
      7716      7715      7717      7716      7715      7718      7717      7715      7718
      7715      7718      7719      7715      7718      7720      7715      7718      7721
      7719      7718      7720      7719      7718      7721      7720      7718      7721
      4808      4807      4809      4808      4807      4811      4808      4807      4853
      4809      4807      4811      4809      4807      4853      4811      4807      4853
      4807      4809      4810      4807      4811      4812      4807      4811      4813
      4807      4811      4814      4812      4811      4813      4812      4811      4814
      4813      4811      4814      4811      4814      4815      4811      4814      4845
      4815      4814      4845      4814      4815      4816      4814      4815      4817
      4816      4815      4817      4815      4817      4818      4815      4817      4819
      4815      4817      4820      4818      4817      4819      4818      4817      4820
      4819      4817      4820      4817      4820      4821      4817      4820      4822
      4817      4820      4843      4821      4820      4822      4821      4820      4843
      4822      4820      4843      4820      4822      4823      4820      4822      4824
      4820      4822      4832      4823      4822      4824      4823      4822      4832
      4824      4822      4832      4822      4824      4825      4822      4824      4826
      4822      4824      4827      4825      4824      4826      4825      4824      4827
      4826      4824      4827      4824      4827      4828      4824      4827      4829
      4824      4827      4830      4828      4827      4829      4828      4827      4830
      4829      4827      4830      4827      4830      4831      4827      4830      4832
      4827      4830      4856      4831      4830      4832      4831      4830      4856
      4832      4830      4856      4822      4832      4830      4822      4832      4833
      4822      4832      4837      4830      4832      4833      4830      4832      4837
      4833      4832      4837      4832      4833      4834      4832      4833      4835
      4832      4833      4836      4834      4833      4835      4834      4833      4836
      4835      4833      4836      4832      4837      4838      4832      4837      4839
      4832      4837      4840      4838      4837      4839      4838      4837      4840
      4839      4837      4840      4837      4840      4841      4837      4840      4842
      4837      4840      4843      4841      4840      4842      4841      4840      4843
      4842      4840      4843      4820      4843      4840      4820      4843      4844
      4820      4843      4845      4840      4843      4844      4840      4843      4845
      4844      4843      4845      4814      4845      4843      4814      4845      4846
      4814      4845      4850      4843      4845      4846      4843      4845      4850
      4846      4845      4850      4845      4846      4847      4845      4846      4848
      4845      4846      4849      4847      4846      4848      4847      4846      4849
      4848      4846      4849      4845      4850      4851      4845      4850      4852
      4845      4850      4853      4851      4850      4852      4851      4850      4853
      4852      4850      4853      4807      4853      4850      4807      4853      4854
      4807      4853      4855      4850      4853      4854      4850      4853      4855
      4854      4853      4855      4830      4856      4857      4830      4856      4858
      4830      4856      4862      4857      4856      4858      4857      4856      4862
      4858      4856      4862      4856      4858      4859      4856      4858      4860
      4856      4858      4861      4859      4858      4860      4859      4858      4861
      4860      4858      4861      4856      4862      4863      4856      4862      4864
      4856      4862      4865      4863      4862      4864      4863      4862      4865
      4864      4862      4865      4862      4865      4866      4862      4865      4867
      4862      4865      4868      4866      4865      4867      4866      4865      4868
      4867      4865      4868      4865      4868      4869      4865      4868      4870
      4865      4868      4871      4869      4868      4870      4869      4868      4871
      4870      4868      4871      4868      4871      4872      4868      4871      4873
      4868      4871      4877      4872      4871      4873      4872      4871      4877
      4873      4871      4877      4871      4873      4874      4871      4873      4875
      4871      4873      4876      4874      4873      4875      4874      4873      4876
      4875      4873      4876      4871      4877      4878      4871      4877      4879
      4871      4877      4880      4878      4877      4879      4878      4877      4880
      4879      4877      4880      4882      4881      4883      4882      4881      4885
      4882      4881      4927      4883      4881      4885      4883      4881      4927
      4885      4881      4927      4881      4883      4884      4881      4885      4886
      4881      4885      4887      4881      4885      4888      4886      4885      4887
      4886      4885      4888      4887      4885      4888      4885      4888      4889
      4885      4888      4919      4889      4888      4919      4888      4889      4890
      4888      4889      4891      4890      4889      4891      4889      4891      4892
      4889      4891      4893      4889      4891      4894      4892      4891      4893
      4892      4891      4894      4893      4891      4894      4891      4894      4895
      4891      4894      4896      4891      4894      4917      4895      4894      4896
      4895      4894      4917      4896      4894      4917      4894      4896      4897
      4894      4896      4898      4894      4896      4906      4897      4896      4898
      4897      4896      4906      4898      4896      4906      4896      4898      4899
      4896      4898      4900      4896      4898      4901      4899      4898      4900
      4899      4898      4901      4900      4898      4901      4898      4901      4902
      4898      4901      4903      4898      4901      4904      4902      4901      4903
      4902      4901      4904      4903      4901      4904      4901      4904      4905
      4901      4904      4906      4901      4904      4930      4905      4904      4906
      4905      4904      4930      4906      4904      4930      4896      4906      4904
      4896      4906      4907      4896      4906      4911      4904      4906      4907
      4904      4906      4911      4907      4906      4911      4906      4907      4908
      4906      4907      4909      4906      4907      4910      4908      4907      4909
      4908      4907      4910      4909      4907      4910      4906      4911      4912
      4906      4911      4913      4906      4911      4914      4912      4911      4913
      4912      4911      4914      4913      4911      4914      4911      4914      4915
      4911      4914      4916      4911      4914      4917      4915      4914      4916
      4915      4914      4917      4916      4914      4917      4894      4917      4914
      4894      4917      4918      4894      4917      4919      4914      4917      4918
      4914      4917      4919      4918      4917      4919      4888      4919      4917
      4888      4919      4920      4888      4919      4924      4917      4919      4920
      4917      4919      4924      4920      4919      4924      4919      4920      4921
      4919      4920      4922      4919      4920      4923      4921      4920      4922
      4921      4920      4923      4922      4920      4923      4919      4924      4925
      4919      4924      4926      4919      4924      4927      4925      4924      4926
      4925      4924      4927      4926      4924      4927      4881      4927      4924
      4881      4927      4928      4881      4927      4929      4924      4927      4928
      4924      4927      4929      4928      4927      4929      4904      4930      4931
      4904      4930      4932      4904      4930      4936      4931      4930      4932
      4931      4930      4936      4932      4930      4936      4930      4932      4933
      4930      4932      4934      4930      4932      4935      4933      4932      4934
      4933      4932      4935      4934      4932      4935      4930      4936      4937
      4930      4936      4938      4930      4936      4939      4937      4936      4938
      4937      4936      4939      4938      4936      4939      4936      4939      4940
      4936      4939      4941      4936      4939      4942      4940      4939      4941
      4940      4939      4942      4941      4939      4942      4939      4942      4943
      4939      4942      4944      4939      4942      4945      4943      4942      4944
      4943      4942      4945      4944      4942      4945      4942      4945      4946
      4942      4945      4947      4942      4945      4951      4946      4945      4947
      4946      4945      4951      4947      4945      4951      4945      4947      4948
      4945      4947      4949      4945      4947      4950      4948      4947      4949
      4948      4947      4950      4949      4947      4950      4945      4951      4952
      4945      4951      4953      4945      4951      4954      4952      4951      4953
      4952      4951      4954      4953      4951      4954     21968     21967     21969
     21968     21967     21971     21968     21967     21987     21969     21967     21971
     21969     21967     21987     21971     21967     21987     21967     21969     21970
     21967     21971     21972     21967     21971     21973     21967     21971     21975
     21972     21971     21973     21972     21971     21975     21973     21971     21975
     21971     21973     21974     21971     21975     21976     21971     21975     21977
     21971     21975     21979     21976     21975     21977     21976     21975     21979
     21977     21975     21979     21975     21977     21978     21975     21979     21980
     21975     21979     21981     21975     21979     21983     21980     21979     21981
     21980     21979     21983     21981     21979     21983     21979     21981     21982
     21979     21983     21984     21979     21983     21985     21979     21983     21987
     21984     21983     21985     21984     21983     21987     21985     21983     21987
     21983     21985     21986     21967     21987     21983     21967     21987     21988
     21967     21987     21992     21983     21987     21988     21983     21987     21992
     21988     21987     21992     21990     21989     21991     21990     21989     21992
     21990     21989     21993     21991     21989     21992     21991     21989     21993
     21992     21989     21993     21987     21992     21989     21989     21993     21994
     21993     21994     21995     21993     21994     21996     21993     21994     21997
     21995     21994     21996     21995     21994     21997     21996     21994     21997
     21994     21997     21998     21994     21997     21999     21994     21997     22005
     21998     21997     21999     21998     21997     22005     21999     21997     22005
     21997     21999     22000     21999     22000     22001     21999     22000     22002
     22001     22000     22002     22000     22002     22003     22000     22002     22004
     22000     22002     22014     22003     22002     22004     22003     22002     22014
     22004     22002     22014     21997     22005     22006     21997     22005     22007
     21997     22005     22008     22006     22005     22007     22006     22005     22008
     22007     22005     22008     22005     22008     22009     22008     22009     22010
     22008     22009     22011     22010     22009     22011     22009     22011     22012
     22009     22011     22013     22009     22011     22061     22012     22011     22013
     22012     22011     22061     22013     22011     22061     22002     22014     22015
     22002     22014     22016     22002     22014     22017     22015     22014     22016
     22015     22014     22017     22016     22014     22017     22014     22017     22018
     22014     22017     22019     22014     22017     22020     22018     22017     22019
     22018     22017     22020     22019     22017     22020     22017     22020     22021
     22017     22020     22022     22021     22020     22022     22020     22022     22023
     22020     22022     22024     22023     22022     22024     22022     22024     22025
     22022     22024     22026     22022     22024     22027     22025     22024     22026
     22025     22024     22027     22026     22024     22027     22024     22027     22028
     22024     22027     22029     22028     22027     22029     22027     22029     22030
     22027     22029     22031     22030     22029     22031     22029     22031     22032
     22029     22031     22033     22029     22031     22034     22032     22031     22033
     22032     22031     22034     22033     22031     22034     22031     22034     22035
     22031     22034     22036     22035     22034     22036     22034     22036     22037
     22034     22036     22038     22037     22036     22038     22036     22038     22039
     22036     22038     22040     22036     22038     22041     22039     22038     22040
     22039     22038     22041     22040     22038     22041     22038     22041     22042
     22038     22041     22043     22042     22041     22043     22041     22043     22044
     22041     22043     22045     22044     22043     22045     22043     22045     22046
     22043     22045     22047     22043     22045     22048     22046     22045     22047
     22046     22045     22048     22047     22045     22048     22045     22048     22049
     22045     22048     22050     22045     22048     22051     22049     22048     22050
     22049     22048     22051     22050     22048     22051     22048     22051     22052
     22048     22051     22053     22048     22051     22054     22052     22051     22053
     22052     22051     22054     22053     22051     22054     22051     22054     22055
     22051     22054     22056     22051     22054     22057     22055     22054     22056
     22055     22054     22057     22056     22054     22057     22054     22057     22058
     22054     22057     22059     22054     22057     22060     22058     22057     22059
     22058     22057     22060     22059     22057     22060     22011     22061     22062
     22011     22061     22063     22011     22061     22064     22062     22061     22063
     22062     22061     22064     22063     22061     22064     22061     22064     22065
     22061     22064     22066     22061     22064     22067     22065     22064     22066
     22065     22064     22067     22066     22064     22067     22064     22067     22068
     22064     22067     22069     22064     22067     22070     22068     22067     22069
     22068     22067     22070     22069     22067     22070     22067     22070     22071
     22067     22070     22072     22067     22070     22073     22071     22070     22072
     22071     22070     22073     22072     22070     22073     22070     22073     22074
     22070     22073     22075     22070     22073     22076     22074     22073     22075
     22074     22073     22076     22075     22073     22076     22073     22076     22077
     22073     22076     22078     22073     22076     22079     22077     22076     22078
     22077     22076     22079     22078     22076     22079     22076     22079     22080
     22076     22079     22081     22076     22079     22082     22080     22079     22081
     22080     22079     22082     22081     22079     22082     22079     22082     22083
     22079     22082     22084     22079     22082     22085     22083     22082     22084
     22083     22082     22085     22084     22082     22085     22082     22085     22086
     22082     22085     22087     22082     22085     22088     22086     22085     22087
     22086     22085     22088     22087     22085     22088     22085     22088     22089
     22085     22088     22090     22085     22088     22091     22089     22088     22090
     22089     22088     22091     22090     22088     22091     22088     22091     22092
     22088     22091     22093     22088     22091     22094     22092     22091     22093
     22092     22091     22094     22093     22091     22094     22091     22094     22095
     22091     22094     22096     22091     22094     22097     22095     22094     22096
     22095     22094     22097     22096     22094     22097     22094     22097     22098
     22094     22097     22099     22094     22097     22100     22098     22097     22099
     22098     22097     22100     22099     22097     22100     22097     22100     22101
     22097     22100     22102     22097     22100     22103     22101     22100     22102
     22101     22100     22103     22102     22100     22103     22100     22103     22104
     22100     22103     22105     22100     22103     22106     22104     22103     22105
     22104     22103     22106     22105     22103     22106     22103     22106     22107
     22103     22106     22108     22103     22106     22109     22107     22106     22108
     22107     22106     22109     22108     22106     22109      1465      1464      1466
      1465      1464      1467      1465      1464      1468      1466      1464      1467
      1466      1464      1468      1467      1464      1468      1464      1468      1469
      1464      1468      1470      1464      1468      1473      1469      1468      1470
      1469      1468      1473      1470      1468      1473      1468      1470      1471
      1468      1470      1472      1471      1470      1472      1468      1473      1474
      1468      1473      1475      1468      1473      1479      1474      1473      1475
      1474      1473      1479      1475      1473      1479      1477      1476      1478
      1477      1476      1479      1477      1476      1480      1478      1476      1479
      1478      1476      1480      1479      1476      1480      1473      1479      1476
      1476      1480      1481      1480      1481      1482      1480      1481      1483
      1480      1481      1484      1482      1481      1483      1482      1481      1484
      1483      1481      1484      1481      1484      1485      1481      1484      1486
      1481      1484      1492      1485      1484      1486      1485      1484      1492
      1486      1484      1492      1484      1486      1487      1486      1487      1488
      1486      1487      1489      1488      1487      1489      1487      1489      1490
      1487      1489      1491      1487      1489      1501      1490      1489      1491
      1490      1489      1501      1491      1489      1501      1484      1492      1493
      1484      1492      1494      1484      1492      1495      1493      1492      1494
      1493      1492      1495      1494      1492      1495      1492      1495      1496
      1495      1496      1497      1495      1496      1498      1497      1496      1498
      1496      1498      1499      1496      1498      1500      1496      1498      1548
      1499      1498      1500      1499      1498      1548      1500      1498      1548
      1489      1501      1502      1489      1501      1503      1489      1501      1504
      1502      1501      1503      1502      1501      1504      1503      1501      1504
      1501      1504      1505      1501      1504      1506      1501      1504      1507
      1505      1504      1506      1505      1504      1507      1506      1504      1507
      1504      1507      1508      1504      1507      1509      1508      1507      1509
      1507      1509      1510      1507      1509      1511      1510      1509      1511
      1509      1511      1512      1509      1511      1513      1509      1511      1514
      1512      1511      1513      1512      1511      1514      1513      1511      1514
      1511      1514      1515      1511      1514      1516      1515      1514      1516
      1514      1516      1517      1514      1516      1518      1517      1516      1518
      1516      1518      1519      1516      1518      1520      1516      1518      1521
      1519      1518      1520      1519      1518      1521      1520      1518      1521
      1518      1521      1522      1518      1521      1523      1522      1521      1523
      1521      1523      1524      1521      1523      1525      1524      1523      1525
      1523      1525      1526      1523      1525      1527      1523      1525      1528
      1526      1525      1527      1526      1525      1528      1527      1525      1528
      1525      1528      1529      1525      1528      1530      1529      1528      1530
      1528      1530      1531      1528      1530      1532      1531      1530      1532
      1530      1532      1533      1530      1532      1534      1530      1532      1535
      1533      1532      1534      1533      1532      1535      1534      1532      1535
      1532      1535      1536      1532      1535      1537      1532      1535      1538
      1536      1535      1537      1536      1535      1538      1537      1535      1538
      1535      1538      1539      1535      1538      1540      1535      1538      1541
      1539      1538      1540      1539      1538      1541      1540      1538      1541
      1538      1541      1542      1538      1541      1543      1538      1541      1544
      1542      1541      1543      1542      1541      1544      1543      1541      1544
      1541      1544      1545      1541      1544      1546      1541      1544      1547
      1545      1544      1546      1545      1544      1547      1546      1544      1547
      1498      1548      1549      1498      1548      1550      1498      1548      1551
      1549      1548      1550      1549      1548      1551      1550      1548      1551
      1548      1551      1552      1548      1551      1553      1548      1551      1554
      1552      1551      1553      1552      1551      1554      1553      1551      1554
      1551      1554      1555      1551      1554      1556      1551      1554      1557
      1555      1554      1556      1555      1554      1557      1556      1554      1557
      1554      1557      1558      1554      1557      1559      1554      1557      1560
      1558      1557      1559      1558      1557      1560      1559      1557      1560
      1557      1560      1561      1557      1560      1562      1557      1560      1563
      1561      1560      1562      1561      1560      1563      1562      1560      1563
      1560      1563      1564      1560      1563      1565      1560      1563      1566
      1564      1563      1565      1564      1563      1566      1565      1563      1566
      1563      1566      1567      1563      1566      1568      1563      1566      1569
      1567      1566      1568      1567      1566      1569      1568      1566      1569
      1566      1569      1570      1566      1569      1571      1566      1569      1572
      1570      1569      1571      1570      1569      1572      1571      1569      1572
      1569      1572      1573      1569      1572      1574      1569      1572      1575
      1573      1572      1574      1573      1572      1575      1574      1572      1575
      1572      1575      1576      1572      1575      1577      1572      1575      1578
      1576      1575      1577      1576      1575      1578      1577      1575      1578
      1575      1578      1579      1575      1578      1580      1575      1578      1581
      1579      1578      1580      1579      1578      1581      1580      1578      1581
      1578      1581      1582      1578      1581      1583      1578      1581      1584
      1582      1581      1583      1582      1581      1584      1583      1581      1584
      1581      1584      1585      1581      1584      1586      1581      1584      1587
      1585      1584      1586      1585      1584      1587      1586      1584      1587
      1584      1587      1588      1584      1587      1589      1584      1587      1590
      1588      1587      1589      1588      1587      1590      1589      1587      1590
      1587      1590      1591      1587      1590      1592      1587      1590      1593
      1591      1590      1592      1591      1590      1593      1592      1590      1593
      1590      1593      1594      1590      1593      1595      1590      1593      1596
      1594      1593      1595      1594      1593      1596      1595      1593      1596
     13071     13070     13075     13071     13070     13079     13071     13070     13083
     13075     13070     13079     13075     13070     13083     13079     13070     13083
     13070     13071     13072     13070     13071     13073     13070     13071     13074
     13072     13071     13073     13072     13071     13074     13073     13071     13074
     13070     13075     13076     13070     13075     13077     13070     13075     13078
     13076     13075     13077     13076     13075     13078     13077     13075     13078
     13070     13079     13080     13070     13079     13081     13070     13079     13082
     13080     13079     13081     13080     13079     13082     13081     13079     13082
     13070     13083     13084     13070     13083     13085     13070     13083     13086
     13084     13083     13085     13084     13083     13086     13085     13083     13086
     13083     13086     13087     13083     13086     13088     13083     13086     13093
     13087     13086     13088     13087     13086     13093     13088     13086     13093
     13090     13089     13091     13090     13089     13092     13090     13089     13093
     13091     13089     13092     13091     13089     13093     13092     13089     13093
     13089     13092     13094     13086     13093     13089     13092     13094     13095
     13092     13094     13096     13092     13094     13099     13095     13094     13096
     13095     13094     13099     13096     13094     13099     13098     13097     13099
     13098     13097     13149     13099     13097     13149     13094     13099     13097
     13094     13099     13100     13094     13099     13101     13097     13099     13100
     13097     13099     13101     13100     13099     13101     13099     13101     13102
     13099     13101     13103     13099     13101     13105     13102     13101     13103
     13102     13101     13105     13103     13101     13105     13101     13103     13104
     13101     13105     13106     13101     13105     13107     13106     13105     13107
     13105     13107     13108     13105     13107     13109     13108     13107     13109
     13107     13109     13110     13107     13109     13111     13107     13109     13112
     13110     13109     13111     13110     13109     13112     13111     13109     13112
     13109     13112     13113     13109     13112     13114     13109     13112     13115
     13113     13112     13114     13113     13112     13115     13114     13112     13115
     13112     13115     13116     13112     13115     13117     13112     13115     13118
     13116     13115     13117     13116     13115     13118     13117     13115     13118
     13115     13118     13119     13115     13118     13120     13115     13118     13121
     13119     13118     13120     13119     13118     13121     13120     13118     13121
     13118     13121     13122     13118     13121     13123     13118     13121     13124
     13122     13121     13123     13122     13121     13124     13123     13121     13124
     13121     13124     13125     13121     13124     13126     13121     13124     13127
     13125     13124     13126     13125     13124     13127     13126     13124     13127
     13124     13127     13128     13124     13127     13129     13124     13127     13130
     13128     13127     13129     13128     13127     13130     13129     13127     13130
     13127     13130     13131     13127     13130     13132     13127     13130     13133
     13131     13130     13132     13131     13130     13133     13132     13130     13133
     13130     13133     13134     13130     13133     13135     13130     13133     13136
     13134     13133     13135     13134     13133     13136     13135     13133     13136
     13133     13136     13137     13133     13136     13138     13133     13136     13139
     13137     13136     13138     13137     13136     13139     13138     13136     13139
     13136     13139     13140     13136     13139     13141     13136     13139     13142
     13140     13139     13141     13140     13139     13142     13141     13139     13142
     13139     13142     13143     13139     13142     13144     13139     13142     13145
     13143     13142     13144     13143     13142     13145     13144     13142     13145
     13142     13145     13146     13142     13145     13147     13142     13145     13148
     13146     13145     13147     13146     13145     13148     13147     13145     13148
     13097     13149     13150     13097     13149     13151     13150     13149     13151
     13149     13151     13152     13149     13151     13153     13149     13151     13154
     13152     13151     13153     13152     13151     13154     13153     13151     13154
     13151     13154     13155     13151     13154     13156     13151     13154     13157
     13155     13154     13156     13155     13154     13157     13156     13154     13157
     13154     13157     13158     13154     13157     13159     13154     13157     13160
     13158     13157     13159     13158     13157     13160     13159     13157     13160
     13157     13160     13161     13157     13160     13162     13157     13160     13163
     13161     13160     13162     13161     13160     13163     13162     13160     13163
     13160     13163     13164     13160     13163     13165     13160     13163     13166
     13164     13163     13165     13164     13163     13166     13165     13163     13166
     13163     13166     13167     13163     13166     13168     13163     13166     13169
     13167     13166     13168     13167     13166     13169     13168     13166     13169
     13166     13169     13170     13166     13169     13171     13166     13169     13172
     13170     13169     13171     13170     13169     13172     13171     13169     13172
     13169     13172     13173     13169     13172     13174     13173     13172     13174
     13172     13174     13175     13172     13174     13176     13175     13174     13176
     13174     13176     13177     13174     13176     13178     13174     13176     13179
     13177     13176     13178     13177     13176     13179     13178     13176     13179
     13176     13179     13180     13176     13179     13181     13176     13179     13182
     13180     13179     13181     13180     13179     13182     13181     13179     13182
     13179     13182     13183     13179     13182     13184     13179     13182     13185
     13183     13182     13184     13183     13182     13185     13184     13182     13185
     13182     13185     13186     13182     13185     13187     13182     13185     13188
     13186     13185     13187     13186     13185     13188     13187     13185     13188
     13185     13188     13189     13185     13188     13190     13185     13188     13191
     13189     13188     13190     13189     13188     13191     13190     13188     13191
     13188     13191     13192     13188     13191     13193     13188     13191     13194
     13192     13191     13193     13192     13191     13194     13193     13191     13194
     13191     13194     13195     13191     13194     13196     13191     13194     13197
     13195     13194     13196     13195     13194     13197     13196     13194     13197
     13194     13197     13198     13194     13197     13199     13194     13197     13200
     13198     13197     13199     13198     13197     13200     13199     13197     13200
      7723      7722      7724      7723      7722      7725      7723      7722      7726
      7724      7722      7725      7724      7722      7726      7725      7722      7726
      7722      7726      7727      7722      7726      7728      7722      7726      7729
      7727      7726      7728      7727      7726      7729      7728      7726      7729
      7726      7729      7730      7726      7729      7731      7726      7729      7735
      7730      7729      7731      7730      7729      7735      7731      7729      7735
      7733      7732      7734      7733      7732      7735      7733      7732      7736
      7734      7732      7735      7734      7732      7736      7735      7732      7736
      7729      7735      7732      7732      7736      7737      7736      7737      7738
      7736      7737      7739      7736      7737      7740      7738      7737      7739
      7738      7737      7740      7739      7737      7740      7737      7740      7741
      7737      7740      7742      7737      7740      7748      7741      7740      7742
      7741      7740      7748      7742      7740      7748      7740      7742      7743
      7742      7743      7744      7742      7743      7745      7744      7743      7745
      7743      7745      7746      7743      7745      7747      7743      7745      7757
      7746      7745      7747      7746      7745      7757      7747      7745      7757
      7740      7748      7749      7740      7748      7750      7740      7748      7751
      7749      7748      7750      7749      7748      7751      7750      7748      7751
      7748      7751      7752      7751      7752      7753      7751      7752      7754
      7753      7752      7754      7752      7754      7755      7752      7754      7756
      7752      7754      7804      7755      7754      7756      7755      7754      7804
      7756      7754      7804      7745      7757      7758      7745      7757      7759
      7745      7757      7760      7758      7757      7759      7758      7757      7760
      7759      7757      7760      7757      7760      7761      7757      7760      7762
      7757      7760      7763      7761      7760      7762      7761      7760      7763
      7762      7760      7763      7760      7763      7764      7760      7763      7765
      7760      7763      7766      7764      7763      7765      7764      7763      7766
      7765      7763      7766      7763      7766      7767      7763      7766      7768
      7763      7766      7769      7767      7766      7768      7767      7766      7769
      7768      7766      7769      7766      7769      7770      7766      7769      7771
      7766      7769      7772      7770      7769      7771      7770      7769      7772
      7771      7769      7772      7769      7772      7773      7769      7772      7774
      7769      7772      7775      7773      7772      7774      7773      7772      7775
      7774      7772      7775      7772      7775      7776      7772      7775      7777
      7776      7775      7777      7775      7777      7778      7775      7777      7779
      7778      7777      7779      7777      7779      7780      7777      7779      7781
      7777      7779      7782      7780      7779      7781      7780      7779      7782
      7781      7779      7782      7779      7782      7783      7779      7782      7784
      7779      7782      7785      7783      7782      7784      7783      7782      7785
      7784      7782      7785      7782      7785      7786      7782      7785      7787
      7782      7785      7788      7786      7785      7787      7786      7785      7788
      7787      7785      7788      7785      7788      7789      7785      7788      7790
      7785      7788      7791      7789      7788      7790      7789      7788      7791
      7790      7788      7791      7788      7791      7792      7788      7791      7793
      7788      7791      7794      7792      7791      7793      7792      7791      7794
      7793      7791      7794      7791      7794      7795      7791      7794      7796
      7791      7794      7797      7795      7794      7796      7795      7794      7797
      7796      7794      7797      7794      7797      7798      7794      7797      7799
      7794      7797      7800      7798      7797      7799      7798      7797      7800
      7799      7797      7800      7797      7800      7801      7797      7800      7802
      7797      7800      7803      7801      7800      7802      7801      7800      7803
      7802      7800      7803      7754      7804      7805      7754      7804      7806
      7754      7804      7807      7805      7804      7806      7805      7804      7807
      7806      7804      7807      7804      7807      7808      7804      7807      7809
      7804      7807      7810      7808      7807      7809      7808      7807      7810
      7809      7807      7810      7807      7810      7811      7807      7810      7812
      7807      7810      7813      7811      7810      7812      7811      7810      7813
      7812      7810      7813      7810      7813      7814      7810      7813      7815
      7810      7813      7816      7814      7813      7815      7814      7813      7816
      7815      7813      7816      7813      7816      7817      7813      7816      7818
      7813      7816      7819      7817      7816      7818      7817      7816      7819
      7818      7816      7819      7816      7819      7820      7816      7819      7821
      7816      7819      7822      7820      7819      7821      7820      7819      7822
      7821      7819      7822      7819      7822      7823      7819      7822      7824
      7819      7822      7825      7823      7822      7824      7823      7822      7825
      7824      7822      7825      7822      7825      7826      7822      7825      7827
      7822      7825      7828      7826      7825      7827      7826      7825      7828
      7827      7825      7828      7825      7828      7829      7825      7828      7830
      7825      7828      7831      7829      7828      7830      7829      7828      7831
      7830      7828      7831      7828      7831      7832      7828      7831      7833
      7828      7831      7834      7832      7831      7833      7832      7831      7834
      7833      7831      7834      7831      7834      7835      7831      7834      7836
      7831      7834      7837      7835      7834      7836      7835      7834      7837
      7836      7834      7837      7834      7837      7838      7834      7837      7839
      7834      7837      7840      7838      7837      7839      7838      7837      7840
      7839      7837      7840      7837      7840      7841      7837      7840      7842
      7837      7840      7843      7841      7840      7842      7841      7840      7843
      7842      7840      7843      7840      7843      7844      7840      7843      7845
      7840      7843      7846      7844      7843      7845      7844      7843      7846
      7845      7843      7846      7843      7846      7847      7843      7846      7848
      7843      7846      7849      7847      7846      7848      7847      7846      7849
      7848      7846      7849      7846      7849      7850      7846      7849      7851
      7846      7849      7852      7850      7849      7851      7850      7849      7852
      7851      7849      7852     13202     13201     13206     13202     13201     13210
     13202     13201     13214     13206     13201     13210     13206     13201     13214
     13210     13201     13214     13201     13202     13203     13201     13202     13204
     13201     13202     13205     13203     13202     13204     13203     13202     13205
     13204     13202     13205     13201     13206     13207     13201     13206     13208
     13201     13206     13209     13207     13206     13208     13207     13206     13209
     13208     13206     13209     13201     13210     13211     13201     13210     13212
     13201     13210     13213     13211     13210     13212     13211     13210     13213
     13212     13210     13213     13201     13214     13215     13201     13214     13216
     13201     13214     13217     13215     13214     13216     13215     13214     13217
     13216     13214     13217     13214     13217     13218     13214     13217     13219
     13214     13217     13224     13218     13217     13219     13218     13217     13224
     13219     13217     13224     13221     13220     13222     13221     13220     13223
     13221     13220     13224     13222     13220     13223     13222     13220     13224
     13223     13220     13224     13220     13223     13225     13217     13224     13220
     13223     13225     13226     13223     13225     13227     13223     13225     13230
     13226     13225     13227     13226     13225     13230     13227     13225     13230
     13229     13228     13230     13229     13228     13280     13230     13228     13280
     13225     13230     13228     13225     13230     13231     13225     13230     13232
     13228     13230     13231     13228     13230     13232     13231     13230     13232
     13230     13232     13233     13230     13232     13234     13230     13232     13236
     13233     13232     13234     13233     13232     13236     13234     13232     13236
     13232     13234     13235     13232     13236     13237     13232     13236     13238
     13237     13236     13238     13236     13238     13239     13236     13238     13240
     13239     13238     13240     13238     13240     13241     13238     13240     13242
     13238     13240     13243     13241     13240     13242     13241     13240     13243
     13242     13240     13243     13240     13243     13244     13240     13243     13245
     13240     13243     13246     13244     13243     13245     13244     13243     13246
     13245     13243     13246     13243     13246     13247     13243     13246     13248
     13243     13246     13249     13247     13246     13248     13247     13246     13249
     13248     13246     13249     13246     13249     13250     13246     13249     13251
     13246     13249     13252     13250     13249     13251     13250     13249     13252
     13251     13249     13252     13249     13252     13253     13249     13252     13254
     13249     13252     13255     13253     13252     13254     13253     13252     13255
     13254     13252     13255     13252     13255     13256     13252     13255     13257
     13252     13255     13258     13256     13255     13257     13256     13255     13258
     13257     13255     13258     13255     13258     13259     13255     13258     13260
     13255     13258     13261     13259     13258     13260     13259     13258     13261
     13260     13258     13261     13258     13261     13262     13258     13261     13263
     13258     13261     13264     13262     13261     13263     13262     13261     13264
     13263     13261     13264     13261     13264     13265     13261     13264     13266
     13261     13264     13267     13265     13264     13266     13265     13264     13267
     13266     13264     13267     13264     13267     13268     13264     13267     13269
     13264     13267     13270     13268     13267     13269     13268     13267     13270
     13269     13267     13270     13267     13270     13271     13267     13270     13272
     13267     13270     13273     13271     13270     13272     13271     13270     13273
     13272     13270     13273     13270     13273     13274     13270     13273     13275
     13270     13273     13276     13274     13273     13275     13274     13273     13276
     13275     13273     13276     13273     13276     13277     13273     13276     13278
     13273     13276     13279     13277     13276     13278     13277     13276     13279
     13278     13276     13279     13228     13280     13281     13228     13280     13282
     13281     13280     13282     13280     13282     13283     13280     13282     13284
     13280     13282     13285     13283     13282     13284     13283     13282     13285
     13284     13282     13285     13282     13285     13286     13282     13285     13287
     13282     13285     13288     13286     13285     13287     13286     13285     13288
     13287     13285     13288     13285     13288     13289     13285     13288     13290
     13285     13288     13291     13289     13288     13290     13289     13288     13291
     13290     13288     13291     13288     13291     13292     13288     13291     13293
     13288     13291     13294     13292     13291     13293     13292     13291     13294
     13293     13291     13294     13291     13294     13295     13291     13294     13296
     13291     13294     13297     13295     13294     13296     13295     13294     13297
     13296     13294     13297     13294     13297     13298     13294     13297     13299
     13294     13297     13300     13298     13297     13299     13298     13297     13300
     13299     13297     13300     13297     13300     13301     13297     13300     13302
     13297     13300     13303     13301     13300     13302     13301     13300     13303
     13302     13300     13303     13300     13303     13304     13300     13303     13305
     13304     13303     13305     13303     13305     13306     13303     13305     13307
     13306     13305     13307     13305     13307     13308     13305     13307     13309
     13305     13307     13310     13308     13307     13309     13308     13307     13310
     13309     13307     13310     13307     13310     13311     13307     13310     13312
     13307     13310     13313     13311     13310     13312     13311     13310     13313
     13312     13310     13313     13310     13313     13314     13310     13313     13315
     13310     13313     13316     13314     13313     13315     13314     13313     13316
     13315     13313     13316     13313     13316     13317     13313     13316     13318
     13313     13316     13319     13317     13316     13318     13317     13316     13319
     13318     13316     13319     13316     13319     13320     13316     13319     13321
     13316     13319     13322     13320     13319     13321     13320     13319     13322
     13321     13319     13322     13319     13322     13323     13319     13322     13324
     13319     13322     13325     13323     13322     13324     13323     13322     13325
     13324     13322     13325     13322     13325     13326     13322     13325     13327
     13322     13325     13328     13326     13325     13327     13326     13325     13328
     13327     13325     13328     13325     13328     13329     13325     13328     13330
     13325     13328     13331     13329     13328     13330     13329     13328     13331
     13330     13328     13331     20318     20317     20322     20318     20317     20326
     20318     20317     20330     20322     20317     20326     20322     20317     20330
     20326     20317     20330     20317     20318     20319     20317     20318     20320
     20317     20318     20321     20319     20318     20320     20319     20318     20321
     20320     20318     20321     20317     20322     20323     20317     20322     20324
     20317     20322     20325     20323     20322     20324     20323     20322     20325
     20324     20322     20325     20317     20326     20327     20317     20326     20328
     20317     20326     20329     20327     20326     20328     20327     20326     20329
     20328     20326     20329     20317     20330     20331     20317     20330     20332
     20317     20330     20333     20331     20330     20332     20331     20330     20333
     20332     20330     20333     20330     20333     20334     20330     20333     20335
     20330     20333     20339     20334     20333     20335     20334     20333     20339
     20335     20333     20339     20337     20336     20338     20337     20336     20339
     20337     20336     20340     20338     20336     20339     20338     20336     20340
     20339     20336     20340     20333     20339     20336     20336     20340     20341
     20340     20341     20342     20340     20341     20343     20340     20341     20344
     20342     20341     20343     20342     20341     20344     20343     20341     20344
     20341     20344     20345     20341     20344     20346     20341     20344     20352
     20345     20344     20346     20345     20344     20352     20346     20344     20352
     20344     20346     20347     20346     20347     20348     20346     20347     20349
     20348     20347     20349     20347     20349     20350     20347     20349     20351
     20347     20349     20361     20350     20349     20351     20350     20349     20361
     20351     20349     20361     20344     20352     20353     20344     20352     20354
     20344     20352     20355     20353     20352     20354     20353     20352     20355
     20354     20352     20355     20352     20355     20356     20355     20356     20357
     20355     20356     20358     20357     20356     20358     20356     20358     20359
     20356     20358     20360     20356     20358     20406     20359     20358     20360
     20359     20358     20406     20360     20358     20406     20349     20361     20362
     20349     20361     20363     20349     20361     20364     20362     20361     20363
     20362     20361     20364     20363     20361     20364     20361     20364     20365
     20361     20364     20366     20361     20364     20367     20365     20364     20366
     20365     20364     20367     20366     20364     20367     20364     20367     20368
     20364     20367     20369     20364     20367     20370     20368     20367     20369
     20368     20367     20370     20369     20367     20370     20367     20370     20371
     20367     20370     20372     20367     20370     20373     20371     20370     20372
     20371     20370     20373     20372     20370     20373     20370     20373     20374
     20370     20373     20375     20370     20373     20376     20374     20373     20375
     20374     20373     20376     20375     20373     20376     20373     20376     20377
     20373     20376     20378     20373     20376     20379     20377     20376     20378
     20377     20376     20379     20378     20376     20379     20376     20379     20380
     20376     20379     20381     20380     20379     20381     20379     20381     20382
     20379     20381     20383     20382     20381     20383     20381     20383     20384
     20381     20383     20385     20381     20383     20386     20384     20383     20385
     20384     20383     20386     20385     20383     20386     20383     20386     20387
     20383     20386     20388     20387     20386     20388     20386     20388     20389
     20386     20388     20390     20389     20388     20390     20388     20390     20391
     20388     20390     20392     20388     20390     20393     20391     20390     20392
     20391     20390     20393     20392     20390     20393     20390     20393     20394
     20390     20393     20395     20390     20393     20396     20394     20393     20395
     20394     20393     20396     20395     20393     20396     20393     20396     20397
     20393     20396     20398     20393     20396     20399     20397     20396     20398
     20397     20396     20399     20398     20396     20399     20396     20399     20400
     20396     20399     20401     20396     20399     20402     20400     20399     20401
     20400     20399     20402     20401     20399     20402     20399     20402     20403
     20399     20402     20404     20399     20402     20405     20403     20402     20404
     20403     20402     20405     20404     20402     20405     20358     20406     20407
     20358     20406     20408     20358     20406     20409     20407     20406     20408
     20407     20406     20409     20408     20406     20409     20406     20409     20410
     20406     20409     20411     20406     20409     20412     20410     20409     20411
     20410     20409     20412     20411     20409     20412     20409     20412     20413
     20409     20412     20414     20409     20412     20415     20413     20412     20414
     20413     20412     20415     20414     20412     20415     20412     20415     20416
     20412     20415     20417     20412     20415     20418     20416     20415     20417
     20416     20415     20418     20417     20415     20418     20415     20418     20419
     20415     20418     20420     20415     20418     20421     20419     20418     20420
     20419     20418     20421     20420     20418     20421     20418     20421     20422
     20418     20421     20423     20418     20421     20424     20422     20421     20423
     20422     20421     20424     20423     20421     20424     20421     20424     20425
     20421     20424     20426     20421     20424     20427     20425     20424     20426
     20425     20424     20427     20426     20424     20427     20424     20427     20428
     20424     20427     20429     20424     20427     20430     20428     20427     20429
     20428     20427     20430     20429     20427     20430     20427     20430     20431
     20427     20430     20432     20427     20430     20433     20431     20430     20432
     20431     20430     20433     20432     20430     20433     20430     20433     20434
     20430     20433     20435     20430     20433     20436     20434     20433     20435
     20434     20433     20436     20435     20433     20436     20433     20436     20437
     20433     20436     20438     20433     20436     20439     20437     20436     20438
     20437     20436     20439     20438     20436     20439     20436     20439     20440
     20436     20439     20441     20436     20439     20442     20440     20439     20441
     20440     20439     20442     20441     20439     20442     20439     20442     20443
     20439     20442     20444     20439     20442     20445     20443     20442     20444
     20443     20442     20445     20444     20442     20445     20442     20445     20446
     20442     20445     20447     20442     20445     20448     20446     20445     20447
     20446     20445     20448     20447     20445     20448     20445     20448     20449
     20445     20448     20450     20445     20448     20451     20449     20448     20450
     20449     20448     20451     20450     20448     20451     20448     20451     20452
     20448     20451     20453     20448     20451     20454     20452     20451     20453
     20452     20451     20454     20453     20451     20454      9218      9217      9221
      9218      9217      9225      9218      9217      9229      9221      9217      9225
      9221      9217      9229      9225      9217      9229      9217      9218      9219
      9217      9218      9220      9217      9218      9233      9219      9218      9220
      9219      9218      9233      9220      9218      9233      9217      9221      9222
      9217      9221      9223      9217      9221      9224      9222      9221      9223
      9222      9221      9224      9223      9221      9224      9217      9225      9226
      9217      9225      9227      9217      9225      9228      9226      9225      9227
      9226      9225      9228      9227      9225      9228      9217      9229      9230
      9217      9229      9231      9217      9229      9232      9230      9229      9231
      9230      9229      9232      9231      9229      9232      9218      9233      9234
      9218      9233      9235      9218      9233      9239      9234      9233      9235
      9234      9233      9239      9235      9233      9239      9237      9236      9238
      9237      9236      9239      9237      9236      9240      9238      9236      9239
      9238      9236      9240      9239      9236      9240      9233      9239      9236
      9236      9240      9241      9240      9241      9242      9240      9241      9243
      9240      9241      9244      9242      9241      9243      9242      9241      9244
      9243      9241      9244      9241      9244      9245      9241      9244      9246
      9241      9244      9252      9245      9244      9246      9245      9244      9252
      9246      9244      9252      9244      9246      9247      9246      9247      9248
      9246      9247      9249      9248      9247      9249      9247      9249      9250
      9247      9249      9251      9247      9249      9261      9250      9249      9251
      9250      9249      9261      9251      9249      9261      9244      9252      9253
      9244      9252      9254      9244      9252      9255      9253      9252      9254
      9253      9252      9255      9254      9252      9255      9252      9255      9256
      9255      9256      9257      9255      9256      9258      9257      9256      9258
      9256      9258      9259      9256      9258      9260      9256      9258      9308
      9259      9258      9260      9259      9258      9308      9260      9258      9308
      9249      9261      9262      9249      9261      9263      9249      9261      9264
      9262      9261      9263      9262      9261      9264      9263      9261      9264
      9261      9264      9265      9261      9264      9266      9261      9264      9267
      9265      9264      9266      9265      9264      9267      9266      9264      9267
      9264      9267      9268      9264      9267      9269      9268      9267      9269
      9267      9269      9270      9267      9269      9271      9270      9269      9271
      9269      9271      9272      9269      9271      9273      9269      9271      9274
      9272      9271      9273      9272      9271      9274      9273      9271      9274
      9271      9274      9275      9271      9274      9276      9275      9274      9276
      9274      9276      9277      9274      9276      9278      9277      9276      9278
      9276      9278      9279      9276      9278      9280      9276      9278      9281
      9279      9278      9280      9279      9278      9281      9280      9278      9281
      9278      9281      9282      9278      9281      9283      9282      9281      9283
      9281      9283      9284      9281      9283      9285      9284      9283      9285
      9283      9285      9286      9283      9285      9287      9283      9285      9288
      9286      9285      9287      9286      9285      9288      9287      9285      9288
      9285      9288      9289      9285      9288      9290      9289      9288      9290
      9288      9290      9291      9288      9290      9292      9291      9290      9292
      9290      9292      9293      9290      9292      9294      9290      9292      9295
      9293      9292      9294      9293      9292      9295      9294      9292      9295
      9292      9295      9296      9292      9295      9297      9292      9295      9298
      9296      9295      9297      9296      9295      9298      9297      9295      9298
      9295      9298      9299      9295      9298      9300      9295      9298      9301
      9299      9298      9300      9299      9298      9301      9300      9298      9301
      9298      9301      9302      9298      9301      9303      9298      9301      9304
      9302      9301      9303      9302      9301      9304      9303      9301      9304
      9301      9304      9305      9301      9304      9306      9301      9304      9307
      9305      9304      9306      9305      9304      9307      9306      9304      9307
      9258      9308      9309      9258      9308      9310      9258      9308      9311
      9309      9308      9310      9309      9308      9311      9310      9308      9311
      9308      9311      9312      9308      9311      9313      9308      9311      9314
      9312      9311      9313      9312      9311      9314      9313      9311      9314
      9311      9314      9315      9311      9314      9316      9311      9314      9317
      9315      9314      9316      9315      9314      9317      9316      9314      9317
      9314      9317      9318      9314      9317      9319      9314      9317      9320
      9318      9317      9319      9318      9317      9320      9319      9317      9320
      9317      9320      9321      9317      9320      9322      9317      9320      9323
      9321      9320      9322      9321      9320      9323      9322      9320      9323
      9320      9323      9324      9320      9323      9325      9320      9323      9326
      9324      9323      9325      9324      9323      9326      9325      9323      9326
      9323      9326      9327      9323      9326      9328      9323      9326      9329
      9327      9326      9328      9327      9326      9329      9328      9326      9329
      9326      9329      9330      9326      9329      9331      9326      9329      9332
      9330      9329      9331      9330      9329      9332      9331      9329      9332
      9329      9332      9333      9329      9332      9334      9329      9332      9335
      9333      9332      9334      9333      9332      9335      9334      9332      9335
      9332      9335      9336      9332      9335      9337      9332      9335      9338
      9336      9335      9337      9336      9335      9338      9337      9335      9338
      9335      9338      9339      9335      9338      9340      9335      9338      9341
      9339      9338      9340      9339      9338      9341      9340      9338      9341
      9338      9341      9342      9338      9341      9343      9338      9341      9344
      9342      9341      9343      9342      9341      9344      9343      9341      9344
      9341      9344      9345      9341      9344      9346      9341      9344      9347
      9345      9344      9346      9345      9344      9347      9346      9344      9347
      9344      9347      9348      9344      9347      9349      9344      9347      9350
      9348      9347      9349      9348      9347      9350      9349      9347      9350
      9347      9350      9351      9347      9350      9352      9347      9350      9353
      9351      9350      9352      9351      9350      9353      9352      9350      9353
      9350      9353      9354      9350      9353      9355      9350      9353      9356
      9354      9353      9355      9354      9353      9356      9355      9353      9356
      4956      4955      4957      4956      4955      4959      4956      4955      5001
      4957      4955      4959      4957      4955      5001      4959      4955      5001
      4955      4957      4958      4955      4959      4960      4955      4959      4961
      4955      4959      4962      4960      4959      4961      4960      4959      4962
      4961      4959      4962      4959      4962      4963      4959      4962      4993
      4963      4962      4993      4962      4963      4964      4962      4963      4965
      4964      4963      4965      4963      4965      4966      4963      4965      4967
      4963      4965      4968      4966      4965      4967      4966      4965      4968
      4967      4965      4968      4965      4968      4969      4965      4968      4970
      4965      4968      4991      4969      4968      4970      4969      4968      4991
      4970      4968      4991      4968      4970      4971      4968      4970      4972
      4968      4970      4980      4971      4970      4972      4971      4970      4980
      4972      4970      4980      4970      4972      4973      4970      4972      4974
      4970      4972      4975      4973      4972      4974      4973      4972      4975
      4974      4972      4975      4972      4975      4976      4972      4975      4977
      4972      4975      4978      4976      4975      4977      4976      4975      4978
      4977      4975      4978      4975      4978      4979      4975      4978      4980
      4975      4978      5004      4979      4978      4980      4979      4978      5004
      4980      4978      5004      4970      4980      4978      4970      4980      4981
      4970      4980      4985      4978      4980      4981      4978      4980      4985
      4981      4980      4985      4980      4981      4982      4980      4981      4983
      4980      4981      4984      4982      4981      4983      4982      4981      4984
      4983      4981      4984      4980      4985      4986      4980      4985      4987
      4980      4985      4988      4986      4985      4987      4986      4985      4988
      4987      4985      4988      4985      4988      4989      4985      4988      4990
      4985      4988      4991      4989      4988      4990      4989      4988      4991
      4990      4988      4991      4968      4991      4988      4968      4991      4992
      4968      4991      4993      4988      4991      4992      4988      4991      4993
      4992      4991      4993      4962      4993      4991      4962      4993      4994
      4962      4993      4998      4991      4993      4994      4991      4993      4998
      4994      4993      4998      4993      4994      4995      4993      4994      4996
      4993      4994      4997      4995      4994      4996      4995      4994      4997
      4996      4994      4997      4993      4998      4999      4993      4998      5000
      4993      4998      5001      4999      4998      5000      4999      4998      5001
      5000      4998      5001      4955      5001      4998      4955      5001      5002
      4955      5001      5003      4998      5001      5002      4998      5001      5003
      5002      5001      5003      4978      5004      5005      4978      5004      5006
      4978      5004      5010      5005      5004      5006      5005      5004      5010
      5006      5004      5010      5004      5006      5007      5004      5006      5008
      5004      5006      5009      5007      5006      5008      5007      5006      5009
      5008      5006      5009      5004      5010      5011      5004      5010      5012
      5004      5010      5013      5011      5010      5012      5011      5010      5013
      5012      5010      5013      5010      5013      5014      5010      5013      5015
      5010      5013      5016      5014      5013      5015      5014      5013      5016
      5015      5013      5016      5013      5016      5017      5013      5016      5018
      5013      5016      5019      5017      5016      5018      5017      5016      5019
      5018      5016      5019      5016      5019      5020      5016      5019      5021
      5016      5019      5025      5020      5019      5021      5020      5019      5025
      5021      5019      5025      5019      5021      5022      5019      5021      5023
      5019      5021      5024      5022      5021      5023      5022      5021      5024
      5023      5021      5024      5019      5025      5026      5019      5025      5027
      5019      5025      5028      5026      5025      5027      5026      5025      5028
      5027      5025      5028      5030      5029      5031      5030      5029      5033
      5030      5029      5075      5031      5029      5033      5031      5029      5075
      5033      5029      5075      5029      5031      5032      5029      5033      5034
      5029      5033      5035      5029      5033      5036      5034      5033      5035
      5034      5033      5036      5035      5033      5036      5033      5036      5037
      5033      5036      5067      5037      5036      5067      5036      5037      5038
      5036      5037      5039      5038      5037      5039      5037      5039      5040
      5037      5039      5041      5037      5039      5042      5040      5039      5041
      5040      5039      5042      5041      5039      5042      5039      5042      5043
      5039      5042      5044      5039      5042      5065      5043      5042      5044
      5043      5042      5065      5044      5042      5065      5042      5044      5045
      5042      5044      5046      5042      5044      5054      5045      5044      5046
      5045      5044      5054      5046      5044      5054      5044      5046      5047
      5044      5046      5048      5044      5046      5049      5047      5046      5048
      5047      5046      5049      5048      5046      5049      5046      5049      5050
      5046      5049      5051      5046      5049      5052      5050      5049      5051
      5050      5049      5052      5051      5049      5052      5049      5052      5053
      5049      5052      5054      5049      5052      5078      5053      5052      5054
      5053      5052      5078      5054      5052      5078      5044      5054      5052
      5044      5054      5055      5044      5054      5059      5052      5054      5055
      5052      5054      5059      5055      5054      5059      5054      5055      5056
      5054      5055      5057      5054      5055      5058      5056      5055      5057
      5056      5055      5058      5057      5055      5058      5054      5059      5060
      5054      5059      5061      5054      5059      5062      5060      5059      5061
      5060      5059      5062      5061      5059      5062      5059      5062      5063
      5059      5062      5064      5059      5062      5065      5063      5062      5064
      5063      5062      5065      5064      5062      5065      5042      5065      5062
      5042      5065      5066      5042      5065      5067      5062      5065      5066
      5062      5065      5067      5066      5065      5067      5036      5067      5065
      5036      5067      5068      5036      5067      5072      5065      5067      5068
      5065      5067      5072      5068      5067      5072      5067      5068      5069
      5067      5068      5070      5067      5068      5071      5069      5068      5070
      5069      5068      5071      5070      5068      5071      5067      5072      5073
      5067      5072      5074      5067      5072      5075      5073      5072      5074
      5073      5072      5075      5074      5072      5075      5029      5075      5072
      5029      5075      5076      5029      5075      5077      5072      5075      5076
      5072      5075      5077      5076      5075      5077      5052      5078      5079
      5052      5078      5080      5052      5078      5084      5079      5078      5080
      5079      5078      5084      5080      5078      5084      5078      5080      5081
      5078      5080      5082      5078      5080      5083      5081      5080      5082
      5081      5080      5083      5082      5080      5083      5078      5084      5085
      5078      5084      5086      5078      5084      5087      5085      5084      5086
      5085      5084      5087      5086      5084      5087      5084      5087      5088
      5084      5087      5089      5084      5087      5090      5088      5087      5089
      5088      5087      5090      5089      5087      5090      5087      5090      5091
      5087      5090      5092      5087      5090      5093      5091      5090      5092
      5091      5090      5093      5092      5090      5093      5090      5093      5094
      5090      5093      5095      5090      5093      5099      5094      5093      5095
      5094      5093      5099      5095      5093      5099      5093      5095      5096
      5093      5095      5097      5093      5095      5098      5096      5095      5097
      5096      5095      5098      5097      5095      5098      5093      5099      5100
      5093      5099      5101      5093      5099      5102      5100      5099      5101
      5100      5099      5102      5101      5099      5102     17656     17655     17657
     17656     17655     17658     17656     17655     17659     17657     17655     17658
     17657     17655     17659     17658     17655     17659     17655     17659     17660
     17655     17659     17661     17655     17659     17662     17660     17659     17661
     17660     17659     17662     17661     17659     17662     17659     17662     17663
     17659     17662     17664     17659     17662     17668     17663     17662     17664
     17663     17662     17668     17664     17662     17668     17666     17665     17667
     17666     17665     17668     17666     17665     17669     17667     17665     17668
     17667     17665     17669     17668     17665     17669     17662     17668     17665
     17665     17669     17670     17669     17670     17671     17669     17670     17672
     17669     17670     17673     17671     17670     17672     17671     17670     17673
     17672     17670     17673     17670     17673     17674     17670     17673     17675
     17670     17673     17681     17674     17673     17675     17674     17673     17681
     17675     17673     17681     17673     17675     17676     17675     17676     17677
     17675     17676     17678     17677     17676     17678     17676     17678     17679
     17676     17678     17680     17676     17678     17690     17679     17678     17680
     17679     17678     17690     17680     17678     17690     17673     17681     17682
     17673     17681     17683     17673     17681     17684     17682     17681     17683
     17682     17681     17684     17683     17681     17684     17681     17684     17685
     17684     17685     17686     17684     17685     17687     17686     17685     17687
     17685     17687     17688     17685     17687     17689     17685     17687     17737
     17688     17687     17689     17688     17687     17737     17689     17687     17737
     17678     17690     17691     17678     17690     17692     17678     17690     17693
     17691     17690     17692     17691     17690     17693     17692     17690     17693
     17690     17693     17694     17690     17693     17695     17690     17693     17696
     17694     17693     17695     17694     17693     17696     17695     17693     17696
     17693     17696     17697     17693     17696     17698     17697     17696     17698
     17696     17698     17699     17696     17698     17700     17699     17698     17700
     17698     17700     17701     17698     17700     17702     17698     17700     17703
     17701     17700     17702     17701     17700     17703     17702     17700     17703
     17700     17703     17704     17700     17703     17705     17704     17703     17705
     17703     17705     17706     17703     17705     17707     17706     17705     17707
     17705     17707     17708     17705     17707     17709     17705     17707     17710
     17708     17707     17709     17708     17707     17710     17709     17707     17710
     17707     17710     17711     17707     17710     17712     17711     17710     17712
     17710     17712     17713     17710     17712     17714     17713     17712     17714
     17712     17714     17715     17712     17714     17716     17712     17714     17717
     17715     17714     17716     17715     17714     17717     17716     17714     17717
     17714     17717     17718     17714     17717     17719     17718     17717     17719
     17717     17719     17720     17717     17719     17721     17720     17719     17721
     17719     17721     17722     17719     17721     17723     17719     17721     17724
     17722     17721     17723     17722     17721     17724     17723     17721     17724
     17721     17724     17725     17721     17724     17726     17721     17724     17727
     17725     17724     17726     17725     17724     17727     17726     17724     17727
     17724     17727     17728     17724     17727     17729     17724     17727     17730
     17728     17727     17729     17728     17727     17730     17729     17727     17730
     17727     17730     17731     17727     17730     17732     17727     17730     17733
     17731     17730     17732     17731     17730     17733     17732     17730     17733
     17730     17733     17734     17730     17733     17735     17730     17733     17736
     17734     17733     17735     17734     17733     17736     17735     17733     17736
     17687     17737     17738     17687     17737     17739     17687     17737     17740
     17738     17737     17739     17738     17737     17740     17739     17737     17740
     17737     17740     17741     17737     17740     17742     17737     17740     17743
     17741     17740     17742     17741     17740     17743     17742     17740     17743
     17740     17743     17744     17740     17743     17745     17740     17743     17746
     17744     17743     17745     17744     17743     17746     17745     17743     17746
     17743     17746     17747     17743     17746     17748     17743     17746     17749
     17747     17746     17748     17747     17746     17749     17748     17746     17749
     17746     17749     17750     17746     17749     17751     17746     17749     17752
     17750     17749     17751     17750     17749     17752     17751     17749     17752
     17749     17752     17753     17749     17752     17754     17749     17752     17755
     17753     17752     17754     17753     17752     17755     17754     17752     17755
     17752     17755     17756     17752     17755     17757     17752     17755     17758
     17756     17755     17757     17756     17755     17758     17757     17755     17758
     17755     17758     17759     17755     17758     17760     17755     17758     17761
     17759     17758     17760     17759     17758     17761     17760     17758     17761
     17758     17761     17762     17758     17761     17763     17758     17761     17764
     17762     17761     17763     17762     17761     17764     17763     17761     17764
     17761     17764     17765     17761     17764     17766     17761     17764     17767
     17765     17764     17766     17765     17764     17767     17766     17764     17767
     17764     17767     17768     17764     17767     17769     17764     17767     17770
     17768     17767     17769     17768     17767     17770     17769     17767     17770
     17767     17770     17771     17767     17770     17772     17767     17770     17773
     17771     17770     17772     17771     17770     17773     17772     17770     17773
     17770     17773     17774     17770     17773     17775     17770     17773     17776
     17774     17773     17775     17774     17773     17776     17775     17773     17776
     17773     17776     17777     17773     17776     17778     17773     17776     17779
     17777     17776     17778     17777     17776     17779     17778     17776     17779
     17776     17779     17780     17776     17779     17781     17776     17779     17782
     17780     17779     17781     17780     17779     17782     17781     17779     17782
     17779     17782     17783     17779     17782     17784     17779     17782     17785
     17783     17782     17784     17783     17782     17785     17784     17782     17785
      9358      9357      9361      9358      9357      9365      9358      9357      9369
      9361      9357      9365      9361      9357      9369      9365      9357      9369
      9357      9358      9359      9357      9358      9360      9357      9358      9373
      9359      9358      9360      9359      9358      9373      9360      9358      9373
      9357      9361      9362      9357      9361      9363      9357      9361      9364
      9362      9361      9363      9362      9361      9364      9363      9361      9364
      9357      9365      9366      9357      9365      9367      9357      9365      9368
      9366      9365      9367      9366      9365      9368      9367      9365      9368
      9357      9369      9370      9357      9369      9371      9357      9369      9372
      9370      9369      9371      9370      9369      9372      9371      9369      9372
      9358      9373      9374      9358      9373      9375      9358      9373      9379
      9374      9373      9375      9374      9373      9379      9375      9373      9379
      9377      9376      9378      9377      9376      9379      9377      9376      9380
      9378      9376      9379      9378      9376      9380      9379      9376      9380
      9373      9379      9376      9376      9380      9381      9380      9381      9382
      9380      9381      9383      9380      9381      9384      9382      9381      9383
      9382      9381      9384      9383      9381      9384      9381      9384      9385
      9381      9384      9386      9381      9384      9392      9385      9384      9386
      9385      9384      9392      9386      9384      9392      9384      9386      9387
      9386      9387      9388      9386      9387      9389      9388      9387      9389
      9387      9389      9390      9387      9389      9391      9387      9389      9401
      9390      9389      9391      9390      9389      9401      9391      9389      9401
      9384      9392      9393      9384      9392      9394      9384      9392      9395
      9393      9392      9394      9393      9392      9395      9394      9392      9395
      9392      9395      9396      9395      9396      9397      9395      9396      9398
      9397      9396      9398      9396      9398      9399      9396      9398      9400
      9396      9398      9448      9399      9398      9400      9399      9398      9448
      9400      9398      9448      9389      9401      9402      9389      9401      9403
      9389      9401      9404      9402      9401      9403      9402      9401      9404
      9403      9401      9404      9401      9404      9405      9401      9404      9406
      9401      9404      9407      9405      9404      9406      9405      9404      9407
      9406      9404      9407      9404      9407      9408      9404      9407      9409
      9408      9407      9409      9407      9409      9410      9407      9409      9411
      9410      9409      9411      9409      9411      9412      9409      9411      9413
      9409      9411      9414      9412      9411      9413      9412      9411      9414
      9413      9411      9414      9411      9414      9415      9411      9414      9416
      9415      9414      9416      9414      9416      9417      9414      9416      9418
      9417      9416      9418      9416      9418      9419      9416      9418      9420
      9416      9418      9421      9419      9418      9420      9419      9418      9421
      9420      9418      9421      9418      9421      9422      9418      9421      9423
      9422      9421      9423      9421      9423      9424      9421      9423      9425
      9424      9423      9425      9423      9425      9426      9423      9425      9427
      9423      9425      9428      9426      9425      9427      9426      9425      9428
      9427      9425      9428      9425      9428      9429      9425      9428      9430
      9429      9428      9430      9428      9430      9431      9428      9430      9432
      9431      9430      9432      9430      9432      9433      9430      9432      9434
      9430      9432      9435      9433      9432      9434      9433      9432      9435
      9434      9432      9435      9432      9435      9436      9432      9435      9437
      9432      9435      9438      9436      9435      9437      9436      9435      9438
      9437      9435      9438      9435      9438      9439      9435      9438      9440
      9435      9438      9441      9439      9438      9440      9439      9438      9441
      9440      9438      9441      9438      9441      9442      9438      9441      9443
      9438      9441      9444      9442      9441      9443      9442      9441      9444
      9443      9441      9444      9441      9444      9445      9441      9444      9446
      9441      9444      9447      9445      9444      9446      9445      9444      9447
      9446      9444      9447      9398      9448      9449      9398      9448      9450
      9398      9448      9451      9449      9448      9450      9449      9448      9451
      9450      9448      9451      9448      9451      9452      9448      9451      9453
      9448      9451      9454      9452      9451      9453      9452      9451      9454
      9453      9451      9454      9451      9454      9455      9451      9454      9456
      9451      9454      9457      9455      9454      9456      9455      9454      9457
      9456      9454      9457      9454      9457      9458      9454      9457      9459
      9454      9457      9460      9458      9457      9459      9458      9457      9460
      9459      9457      9460      9457      9460      9461      9457      9460      9462
      9457      9460      9463      9461      9460      9462      9461      9460      9463
      9462      9460      9463      9460      9463      9464      9460      9463      9465
      9460      9463      9466      9464      9463      9465      9464      9463      9466
      9465      9463      9466      9463      9466      9467      9463      9466      9468
      9463      9466      9469      9467      9466      9468      9467      9466      9469
      9468      9466      9469      9466      9469      9470      9466      9469      9471
      9466      9469      9472      9470      9469      9471      9470      9469      9472
      9471      9469      9472      9469      9472      9473      9469      9472      9474
      9469      9472      9475      9473      9472      9474      9473      9472      9475
      9474      9472      9475      9472      9475      9476      9472      9475      9477
      9472      9475      9478      9476      9475      9477      9476      9475      9478
      9477      9475      9478      9475      9478      9479      9475      9478      9480
      9475      9478      9481      9479      9478      9480      9479      9478      9481
      9480      9478      9481      9478      9481      9482      9478      9481      9483
      9478      9481      9484      9482      9481      9483      9482      9481      9484
      9483      9481      9484      9481      9484      9485      9481      9484      9486
      9481      9484      9487      9485      9484      9486      9485      9484      9487
      9486      9484      9487      9484      9487      9488      9484      9487      9489
      9484      9487      9490      9488      9487      9489      9488      9487      9490
      9489      9487      9490      9487      9490      9491      9487      9490      9492
      9487      9490      9493      9491      9490      9492      9491      9490      9493
      9492      9490      9493      9490      9493      9494      9490      9493      9495
      9490      9493      9496      9494      9493      9495      9494      9493      9496
      9495      9493      9496     20456     20455     20460     20456     20455     20464
     20456     20455     20468     20460     20455     20464     20460     20455     20468
     20464     20455     20468     20455     20456     20457     20455     20456     20458
     20455     20456     20459     20457     20456     20458     20457     20456     20459
     20458     20456     20459     20455     20460     20461     20455     20460     20462
     20455     20460     20463     20461     20460     20462     20461     20460     20463
     20462     20460     20463     20455     20464     20465     20455     20464     20466
     20455     20464     20467     20465     20464     20466     20465     20464     20467
     20466     20464     20467     20455     20468     20469     20455     20468     20470
     20455     20468     20471     20469     20468     20470     20469     20468     20471
     20470     20468     20471     20468     20471     20472     20468     20471     20473
     20468     20471     20477     20472     20471     20473     20472     20471     20477
     20473     20471     20477     20475     20474     20476     20475     20474     20477
     20475     20474     20478     20476     20474     20477     20476     20474     20478
     20477     20474     20478     20471     20477     20474     20474     20478     20479
     20478     20479     20480     20478     20479     20481     20478     20479     20482
     20480     20479     20481     20480     20479     20482     20481     20479     20482
     20479     20482     20483     20479     20482     20484     20479     20482     20490
     20483     20482     20484     20483     20482     20490     20484     20482     20490
     20482     20484     20485     20484     20485     20486     20484     20485     20487
     20486     20485     20487     20485     20487     20488     20485     20487     20489
     20485     20487     20499     20488     20487     20489     20488     20487     20499
     20489     20487     20499     20482     20490     20491     20482     20490     20492
     20482     20490     20493     20491     20490     20492     20491     20490     20493
     20492     20490     20493     20490     20493     20494     20493     20494     20495
     20493     20494     20496     20495     20494     20496     20494     20496     20497
     20494     20496     20498     20494     20496     20544     20497     20496     20498
     20497     20496     20544     20498     20496     20544     20487     20499     20500
     20487     20499     20501     20487     20499     20502     20500     20499     20501
     20500     20499     20502     20501     20499     20502     20499     20502     20503
     20499     20502     20504     20499     20502     20505     20503     20502     20504
     20503     20502     20505     20504     20502     20505     20502     20505     20506
     20502     20505     20507     20502     20505     20508     20506     20505     20507
     20506     20505     20508     20507     20505     20508     20505     20508     20509
     20505     20508     20510     20505     20508     20511     20509     20508     20510
     20509     20508     20511     20510     20508     20511     20508     20511     20512
     20508     20511     20513     20508     20511     20514     20512     20511     20513
     20512     20511     20514     20513     20511     20514     20511     20514     20515
     20511     20514     20516     20511     20514     20517     20515     20514     20516
     20515     20514     20517     20516     20514     20517     20514     20517     20518
     20514     20517     20519     20518     20517     20519     20517     20519     20520
     20517     20519     20521     20520     20519     20521     20519     20521     20522
     20519     20521     20523     20519     20521     20524     20522     20521     20523
     20522     20521     20524     20523     20521     20524     20521     20524     20525
     20521     20524     20526     20525     20524     20526     20524     20526     20527
     20524     20526     20528     20527     20526     20528     20526     20528     20529
     20526     20528     20530     20526     20528     20531     20529     20528     20530
     20529     20528     20531     20530     20528     20531     20528     20531     20532
     20528     20531     20533     20528     20531     20534     20532     20531     20533
     20532     20531     20534     20533     20531     20534     20531     20534     20535
     20531     20534     20536     20531     20534     20537     20535     20534     20536
     20535     20534     20537     20536     20534     20537     20534     20537     20538
     20534     20537     20539     20534     20537     20540     20538     20537     20539
     20538     20537     20540     20539     20537     20540     20537     20540     20541
     20537     20540     20542     20537     20540     20543     20541     20540     20542
     20541     20540     20543     20542     20540     20543     20496     20544     20545
     20496     20544     20546     20496     20544     20547     20545     20544     20546
     20545     20544     20547     20546     20544     20547     20544     20547     20548
     20544     20547     20549     20544     20547     20550     20548     20547     20549
     20548     20547     20550     20549     20547     20550     20547     20550     20551
     20547     20550     20552     20547     20550     20553     20551     20550     20552
     20551     20550     20553     20552     20550     20553     20550     20553     20554
     20550     20553     20555     20550     20553     20556     20554     20553     20555
     20554     20553     20556     20555     20553     20556     20553     20556     20557
     20553     20556     20558     20553     20556     20559     20557     20556     20558
     20557     20556     20559     20558     20556     20559     20556     20559     20560
     20556     20559     20561     20556     20559     20562     20560     20559     20561
     20560     20559     20562     20561     20559     20562     20559     20562     20563
     20559     20562     20564     20559     20562     20565     20563     20562     20564
     20563     20562     20565     20564     20562     20565     20562     20565     20566
     20562     20565     20567     20562     20565     20568     20566     20565     20567
     20566     20565     20568     20567     20565     20568     20565     20568     20569
     20565     20568     20570     20565     20568     20571     20569     20568     20570
     20569     20568     20571     20570     20568     20571     20568     20571     20572
     20568     20571     20573     20568     20571     20574     20572     20571     20573
     20572     20571     20574     20573     20571     20574     20571     20574     20575
     20571     20574     20576     20571     20574     20577     20575     20574     20576
     20575     20574     20577     20576     20574     20577     20574     20577     20578
     20574     20577     20579     20574     20577     20580     20578     20577     20579
     20578     20577     20580     20579     20577     20580     20577     20580     20581
     20577     20580     20582     20577     20580     20583     20581     20580     20582
     20581     20580     20583     20582     20580     20583     20580     20583     20584
     20580     20583     20585     20580     20583     20586     20584     20583     20585
     20584     20583     20586     20585     20583     20586     20583     20586     20587
     20583     20586     20588     20583     20586     20589     20587     20586     20588
     20587     20586     20589     20588     20586     20589     20586     20589     20590
     20586     20589     20591     20586     20589     20592     20590     20589     20591
     20590     20589     20592     20591     20589     20592      1598      1597      1599
      1598      1597      1600      1598      1597      1601      1599      1597      1600
      1599      1597      1601      1600      1597      1601      1597      1601      1602
      1597      1601      1603      1597      1601      1606      1602      1601      1603
      1602      1601      1606      1603      1601      1606      1601      1603      1604
      1601      1603      1605      1604      1603      1605      1601      1606      1607
      1601      1606      1608      1601      1606      1612      1607      1606      1608
      1607      1606      1612      1608      1606      1612      1610      1609      1611
      1610      1609      1612      1610      1609      1613      1611      1609      1612
      1611      1609      1613      1612      1609      1613      1606      1612      1609
      1609      1613      1614      1613      1614      1615      1613      1614      1616
      1613      1614      1617      1615      1614      1616      1615      1614      1617
      1616      1614      1617      1614      1617      1618      1614      1617      1619
      1614      1617      1625      1618      1617      1619      1618      1617      1625
      1619      1617      1625      1617      1619      1620      1619      1620      1621
      1619      1620      1622      1621      1620      1622      1620      1622      1623
      1620      1622      1624      1620      1622      1634      1623      1622      1624
      1623      1622      1634      1624      1622      1634      1617      1625      1626
      1617      1625      1627      1617      1625      1628      1626      1625      1627
      1626      1625      1628      1627      1625      1628      1625      1628      1629
      1628      1629      1630      1628      1629      1631      1630      1629      1631
      1629      1631      1632      1629      1631      1633      1629      1631      1681
      1632      1631      1633      1632      1631      1681      1633      1631      1681
      1622      1634      1635      1622      1634      1636      1622      1634      1637
      1635      1634      1636      1635      1634      1637      1636      1634      1637
      1634      1637      1638      1634      1637      1639      1634      1637      1640
      1638      1637      1639      1638      1637      1640      1639      1637      1640
      1637      1640      1641      1637      1640      1642      1641      1640      1642
      1640      1642      1643      1640      1642      1644      1643      1642      1644
      1642      1644      1645      1642      1644      1646      1642      1644      1647
      1645      1644      1646      1645      1644      1647      1646      1644      1647
      1644      1647      1648      1644      1647      1649      1648      1647      1649
      1647      1649      1650      1647      1649      1651      1650      1649      1651
      1649      1651      1652      1649      1651      1653      1649      1651      1654
      1652      1651      1653      1652      1651      1654      1653      1651      1654
      1651      1654      1655      1651      1654      1656      1655      1654      1656
      1654      1656      1657      1654      1656      1658      1657      1656      1658
      1656      1658      1659      1656      1658      1660      1656      1658      1661
      1659      1658      1660      1659      1658      1661      1660      1658      1661
      1658      1661      1662      1658      1661      1663      1662      1661      1663
      1661      1663      1664      1661      1663      1665      1664      1663      1665
      1663      1665      1666      1663      1665      1667      1663      1665      1668
      1666      1665      1667      1666      1665      1668      1667      1665      1668
      1665      1668      1669      1665      1668      1670      1665      1668      1671
      1669      1668      1670      1669      1668      1671      1670      1668      1671
      1668      1671      1672      1668      1671      1673      1668      1671      1674
      1672      1671      1673      1672      1671      1674      1673      1671      1674
      1671      1674      1675      1671      1674      1676      1671      1674      1677
      1675      1674      1676      1675      1674      1677      1676      1674      1677
      1674      1677      1678      1674      1677      1679      1674      1677      1680
      1678      1677      1679      1678      1677      1680      1679      1677      1680
      1631      1681      1682      1631      1681      1683      1631      1681      1684
      1682      1681      1683      1682      1681      1684      1683      1681      1684
      1681      1684      1685      1681      1684      1686      1681      1684      1687
      1685      1684      1686      1685      1684      1687      1686      1684      1687
      1684      1687      1688      1684      1687      1689      1684      1687      1690
      1688      1687      1689      1688      1687      1690      1689      1687      1690
      1687      1690      1691      1687      1690      1692      1687      1690      1693
      1691      1690      1692      1691      1690      1693      1692      1690      1693
      1690      1693      1694      1690      1693      1695      1690      1693      1696
      1694      1693      1695      1694      1693      1696      1695      1693      1696
      1693      1696      1697      1693      1696      1698      1693      1696      1699
      1697      1696      1698      1697      1696      1699      1698      1696      1699
      1696      1699      1700      1696      1699      1701      1696      1699      1702
      1700      1699      1701      1700      1699      1702      1701      1699      1702
      1699      1702      1703      1699      1702      1704      1699      1702      1705
      1703      1702      1704      1703      1702      1705      1704      1702      1705
      1702      1705      1706      1702      1705      1707      1702      1705      1708
      1706      1705      1707      1706      1705      1708      1707      1705      1708
      1705      1708      1709      1705      1708      1710      1705      1708      1711
      1709      1708      1710      1709      1708      1711      1710      1708      1711
      1708      1711      1712      1708      1711      1713      1708      1711      1714
      1712      1711      1713      1712      1711      1714      1713      1711      1714
      1711      1714      1715      1711      1714      1716      1711      1714      1717
      1715      1714      1716      1715      1714      1717      1716      1714      1717
      1714      1717      1718      1714      1717      1719      1714      1717      1720
      1718      1717      1719      1718      1717      1720      1719      1717      1720
      1717      1720      1721      1717      1720      1722      1717      1720      1723
      1721      1720      1722      1721      1720      1723      1722      1720      1723
      1720      1723      1724      1720      1723      1725      1720      1723      1726
      1724      1723      1725      1724      1723      1726      1725      1723      1726
      1723      1726      1727      1723      1726      1728      1723      1726      1729
      1727      1726      1728      1727      1726      1729      1728      1726      1729
      7854      7853      7855      7854      7853      7856      7854      7853      7857
      7855      7853      7856      7855      7853      7857      7856      7853      7857
      7853      7857      7858      7853      7857      7859      7853      7857      7860
      7858      7857      7859      7858      7857      7860      7859      7857      7860
      7857      7860      7861      7857      7860      7862      7857      7860      7866
      7861      7860      7862      7861      7860      7866      7862      7860      7866
      7864      7863      7865      7864      7863      7866      7864      7863      7867
      7865      7863      7866      7865      7863      7867      7866      7863      7867
      7860      7866      7863      7863      7867      7868      7867      7868      7869
      7867      7868      7870      7867      7868      7871      7869      7868      7870
      7869      7868      7871      7870      7868      7871      7868      7871      7872
      7868      7871      7873      7868      7871      7879      7872      7871      7873
      7872      7871      7879      7873      7871      7879      7871      7873      7874
      7873      7874      7875      7873      7874      7876      7875      7874      7876
      7874      7876      7877      7874      7876      7878      7874      7876      7888
      7877      7876      7878      7877      7876      7888      7878      7876      7888
      7871      7879      7880      7871      7879      7881      7871      7879      7882
      7880      7879      7881      7880      7879      7882      7881      7879      7882
      7879      7882      7883      7882      7883      7884      7882      7883      7885
      7884      7883      7885      7883      7885      7886      7883      7885      7887
      7883      7885      7935      7886      7885      7887      7886      7885      7935
      7887      7885      7935      7876      7888      7889      7876      7888      7890
      7876      7888      7891      7889      7888      7890      7889      7888      7891
      7890      7888      7891      7888      7891      7892      7888      7891      7893
      7888      7891      7894      7892      7891      7893      7892      7891      7894
      7893      7891      7894      7891      7894      7895      7891      7894      7896
      7891      7894      7897      7895      7894      7896      7895      7894      7897
      7896      7894      7897      7894      7897      7898      7894      7897      7899
      7894      7897      7900      7898      7897      7899      7898      7897      7900
      7899      7897      7900      7897      7900      7901      7897      7900      7902
      7897      7900      7903      7901      7900      7902      7901      7900      7903
      7902      7900      7903      7900      7903      7904      7900      7903      7905
      7900      7903      7906      7904      7903      7905      7904      7903      7906
      7905      7903      7906      7903      7906      7907      7903      7906      7908
      7907      7906      7908      7906      7908      7909      7906      7908      7910
      7909      7908      7910      7908      7910      7911      7908      7910      7912
      7908      7910      7913      7911      7910      7912      7911      7910      7913
      7912      7910      7913      7910      7913      7914      7910      7913      7915
      7910      7913      7916      7914      7913      7915      7914      7913      7916
      7915      7913      7916      7913      7916      7917      7913      7916      7918
      7913      7916      7919      7917      7916      7918      7917      7916      7919
      7918      7916      7919      7916      7919      7920      7916      7919      7921
      7916      7919      7922      7920      7919      7921      7920      7919      7922
      7921      7919      7922      7919      7922      7923      7919      7922      7924
      7919      7922      7925      7923      7922      7924      7923      7922      7925
      7924      7922      7925      7922      7925      7926      7922      7925      7927
      7922      7925      7928      7926      7925      7927      7926      7925      7928
      7927      7925      7928      7925      7928      7929      7925      7928      7930
      7925      7928      7931      7929      7928      7930      7929      7928      7931
      7930      7928      7931      7928      7931      7932      7928      7931      7933
      7928      7931      7934      7932      7931      7933      7932      7931      7934
      7933      7931      7934      7885      7935      7936      7885      7935      7937
      7885      7935      7938      7936      7935      7937      7936      7935      7938
      7937      7935      7938      7935      7938      7939      7935      7938      7940
      7935      7938      7941      7939      7938      7940      7939      7938      7941
      7940      7938      7941      7938      7941      7942      7938      7941      7943
      7938      7941      7944      7942      7941      7943      7942      7941      7944
      7943      7941      7944      7941      7944      7945      7941      7944      7946
      7941      7944      7947      7945      7944      7946      7945      7944      7947
      7946      7944      7947      7944      7947      7948      7944      7947      7949
      7944      7947      7950      7948      7947      7949      7948      7947      7950
      7949      7947      7950      7947      7950      7951      7947      7950      7952
      7947      7950      7953      7951      7950      7952      7951      7950      7953
      7952      7950      7953      7950      7953      7954      7950      7953      7955
      7950      7953      7956      7954      7953      7955      7954      7953      7956
      7955      7953      7956      7953      7956      7957      7953      7956      7958
      7953      7956      7959      7957      7956      7958      7957      7956      7959
      7958      7956      7959      7956      7959      7960      7956      7959      7961
      7956      7959      7962      7960      7959      7961      7960      7959      7962
      7961      7959      7962      7959      7962      7963      7959      7962      7964
      7959      7962      7965      7963      7962      7964      7963      7962      7965
      7964      7962      7965      7962      7965      7966      7962      7965      7967
      7962      7965      7968      7966      7965      7967      7966      7965      7968
      7967      7965      7968      7965      7968      7969      7965      7968      7970
      7965      7968      7971      7969      7968      7970      7969      7968      7971
      7970      7968      7971      7968      7971      7972      7968      7971      7973
      7968      7971      7974      7972      7971      7973      7972      7971      7974
      7973      7971      7974      7971      7974      7975      7971      7974      7976
      7971      7974      7977      7975      7974      7976      7975      7974      7977
      7976      7974      7977      7974      7977      7978      7974      7977      7979
      7974      7977      7980      7978      7977      7979      7978      7977      7980
      7979      7977      7980      7977      7980      7981      7977      7980      7982
      7977      7980      7983      7981      7980      7982      7981      7980      7983
      7982      7980      7983     13333     13332     13337     13333     13332     13341
     13333     13332     13345     13337     13332     13341     13337     13332     13345
     13341     13332     13345     13332     13333     13334     13332     13333     13335
     13332     13333     13336     13334     13333     13335     13334     13333     13336
     13335     13333     13336     13332     13337     13338     13332     13337     13339
     13332     13337     13340     13338     13337     13339     13338     13337     13340
     13339     13337     13340     13332     13341     13342     13332     13341     13343
     13332     13341     13344     13342     13341     13343     13342     13341     13344
     13343     13341     13344     13332     13345     13346     13332     13345     13347
     13332     13345     13348     13346     13345     13347     13346     13345     13348
     13347     13345     13348     13345     13348     13349     13345     13348     13350
     13345     13348     13355     13349     13348     13350     13349     13348     13355
     13350     13348     13355     13352     13351     13353     13352     13351     13354
     13352     13351     13355     13353     13351     13354     13353     13351     13355
     13354     13351     13355     13351     13354     13356     13348     13355     13351
     13354     13356     13357     13354     13356     13358     13354     13356     13361
     13357     13356     13358     13357     13356     13361     13358     13356     13361
     13360     13359     13361     13360     13359     13411     13361     13359     13411
     13356     13361     13359     13356     13361     13362     13356     13361     13363
     13359     13361     13362     13359     13361     13363     13362     13361     13363
     13361     13363     13364     13361     13363     13365     13361     13363     13367
     13364     13363     13365     13364     13363     13367     13365     13363     13367
     13363     13365     13366     13363     13367     13368     13363     13367     13369
     13368     13367     13369     13367     13369     13370     13367     13369     13371
     13370     13369     13371     13369     13371     13372     13369     13371     13373
     13369     13371     13374     13372     13371     13373     13372     13371     13374
     13373     13371     13374     13371     13374     13375     13371     13374     13376
     13371     13374     13377     13375     13374     13376     13375     13374     13377
     13376     13374     13377     13374     13377     13378     13374     13377     13379
     13374     13377     13380     13378     13377     13379     13378     13377     13380
     13379     13377     13380     13377     13380     13381     13377     13380     13382
     13377     13380     13383     13381     13380     13382     13381     13380     13383
     13382     13380     13383     13380     13383     13384     13380     13383     13385
     13380     13383     13386     13384     13383     13385     13384     13383     13386
     13385     13383     13386     13383     13386     13387     13383     13386     13388
     13383     13386     13389     13387     13386     13388     13387     13386     13389
     13388     13386     13389     13386     13389     13390     13386     13389     13391
     13386     13389     13392     13390     13389     13391     13390     13389     13392
     13391     13389     13392     13389     13392     13393     13389     13392     13394
     13389     13392     13395     13393     13392     13394     13393     13392     13395
     13394     13392     13395     13392     13395     13396     13392     13395     13397
     13392     13395     13398     13396     13395     13397     13396     13395     13398
     13397     13395     13398     13395     13398     13399     13395     13398     13400
     13395     13398     13401     13399     13398     13400     13399     13398     13401
     13400     13398     13401     13398     13401     13402     13398     13401     13403
     13398     13401     13404     13402     13401     13403     13402     13401     13404
     13403     13401     13404     13401     13404     13405     13401     13404     13406
     13401     13404     13407     13405     13404     13406     13405     13404     13407
     13406     13404     13407     13404     13407     13408     13404     13407     13409
     13404     13407     13410     13408     13407     13409     13408     13407     13410
     13409     13407     13410     13359     13411     13412     13359     13411     13413
     13412     13411     13413     13411     13413     13414     13411     13413     13415
     13411     13413     13416     13414     13413     13415     13414     13413     13416
     13415     13413     13416     13413     13416     13417     13413     13416     13418
     13413     13416     13419     13417     13416     13418     13417     13416     13419
     13418     13416     13419     13416     13419     13420     13416     13419     13421
     13416     13419     13422     13420     13419     13421     13420     13419     13422
     13421     13419     13422     13419     13422     13423     13419     13422     13424
     13419     13422     13425     13423     13422     13424     13423     13422     13425
     13424     13422     13425     13422     13425     13426     13422     13425     13427
     13422     13425     13428     13426     13425     13427     13426     13425     13428
     13427     13425     13428     13425     13428     13429     13425     13428     13430
     13425     13428     13431     13429     13428     13430     13429     13428     13431
     13430     13428     13431     13428     13431     13432     13428     13431     13433
     13428     13431     13434     13432     13431     13433     13432     13431     13434
     13433     13431     13434     13431     13434     13435     13431     13434     13436
     13435     13434     13436     13434     13436     13437     13434     13436     13438
     13437     13436     13438     13436     13438     13439     13436     13438     13440
     13436     13438     13441     13439     13438     13440     13439     13438     13441
     13440     13438     13441     13438     13441     13442     13438     13441     13443
     13438     13441     13444     13442     13441     13443     13442     13441     13444
     13443     13441     13444     13441     13444     13445     13441     13444     13446
     13441     13444     13447     13445     13444     13446     13445     13444     13447
     13446     13444     13447     13444     13447     13448     13444     13447     13449
     13444     13447     13450     13448     13447     13449     13448     13447     13450
     13449     13447     13450     13447     13450     13451     13447     13450     13452
     13447     13450     13453     13451     13450     13452     13451     13450     13453
     13452     13450     13453     13450     13453     13454     13450     13453     13455
     13450     13453     13456     13454     13453     13455     13454     13453     13456
     13455     13453     13456     13453     13456     13457     13453     13456     13458
     13453     13456     13459     13457     13456     13458     13457     13456     13459
     13458     13456     13459     13456     13459     13460     13456     13459     13461
     13456     13459     13462     13460     13459     13461     13460     13459     13462
     13461     13459     13462     13464     13463     13468     13464     13463     13472
     13464     13463     13476     13468     13463     13472     13468     13463     13476
     13472     13463     13476     13463     13464     13465     13463     13464     13466
     13463     13464     13467     13465     13464     13466     13465     13464     13467
     13466     13464     13467     13463     13468     13469     13463     13468     13470
     13463     13468     13471     13469     13468     13470     13469     13468     13471
     13470     13468     13471     13463     13472     13473     13463     13472     13474
     13463     13472     13475     13473     13472     13474     13473     13472     13475
     13474     13472     13475     13463     13476     13477     13463     13476     13478
     13463     13476     13479     13477     13476     13478     13477     13476     13479
     13478     13476     13479     13476     13479     13480     13476     13479     13481
     13476     13479     13486     13480     13479     13481     13480     13479     13486
     13481     13479     13486     13483     13482     13484     13483     13482     13485
     13483     13482     13486     13484     13482     13485     13484     13482     13486
     13485     13482     13486     13482     13485     13487     13479     13486     13482
     13485     13487     13488     13485     13487     13489     13485     13487     13492
     13488     13487     13489     13488     13487     13492     13489     13487     13492
     13491     13490     13492     13491     13490     13542     13492     13490     13542
     13487     13492     13490     13487     13492     13493     13487     13492     13494
     13490     13492     13493     13490     13492     13494     13493     13492     13494
     13492     13494     13495     13492     13494     13496     13492     13494     13498
     13495     13494     13496     13495     13494     13498     13496     13494     13498
     13494     13496     13497     13494     13498     13499     13494     13498     13500
     13499     13498     13500     13498     13500     13501     13498     13500     13502
     13501     13500     13502     13500     13502     13503     13500     13502     13504
     13500     13502     13505     13503     13502     13504     13503     13502     13505
     13504     13502     13505     13502     13505     13506     13502     13505     13507
     13502     13505     13508     13506     13505     13507     13506     13505     13508
     13507     13505     13508     13505     13508     13509     13505     13508     13510
     13505     13508     13511     13509     13508     13510     13509     13508     13511
     13510     13508     13511     13508     13511     13512     13508     13511     13513
     13508     13511     13514     13512     13511     13513     13512     13511     13514
     13513     13511     13514     13511     13514     13515     13511     13514     13516
     13511     13514     13517     13515     13514     13516     13515     13514     13517
     13516     13514     13517     13514     13517     13518     13514     13517     13519
     13514     13517     13520     13518     13517     13519     13518     13517     13520
     13519     13517     13520     13517     13520     13521     13517     13520     13522
     13517     13520     13523     13521     13520     13522     13521     13520     13523
     13522     13520     13523     13520     13523     13524     13520     13523     13525
     13520     13523     13526     13524     13523     13525     13524     13523     13526
     13525     13523     13526     13523     13526     13527     13523     13526     13528
     13523     13526     13529     13527     13526     13528     13527     13526     13529
     13528     13526     13529     13526     13529     13530     13526     13529     13531
     13526     13529     13532     13530     13529     13531     13530     13529     13532
     13531     13529     13532     13529     13532     13533     13529     13532     13534
     13529     13532     13535     13533     13532     13534     13533     13532     13535
     13534     13532     13535     13532     13535     13536     13532     13535     13537
     13532     13535     13538     13536     13535     13537     13536     13535     13538
     13537     13535     13538     13535     13538     13539     13535     13538     13540
     13535     13538     13541     13539     13538     13540     13539     13538     13541
     13540     13538     13541     13490     13542     13543     13490     13542     13544
     13543     13542     13544     13542     13544     13545     13542     13544     13546
     13542     13544     13547     13545     13544     13546     13545     13544     13547
     13546     13544     13547     13544     13547     13548     13544     13547     13549
     13544     13547     13550     13548     13547     13549     13548     13547     13550
     13549     13547     13550     13547     13550     13551     13547     13550     13552
     13547     13550     13553     13551     13550     13552     13551     13550     13553
     13552     13550     13553     13550     13553     13554     13550     13553     13555
     13550     13553     13556     13554     13553     13555     13554     13553     13556
     13555     13553     13556     13553     13556     13557     13553     13556     13558
     13553     13556     13559     13557     13556     13558     13557     13556     13559
     13558     13556     13559     13556     13559     13560     13556     13559     13561
     13556     13559     13562     13560     13559     13561     13560     13559     13562
     13561     13559     13562     13559     13562     13563     13559     13562     13564
     13559     13562     13565     13563     13562     13564     13563     13562     13565
     13564     13562     13565     13562     13565     13566     13562     13565     13567
     13566     13565     13567     13565     13567     13568     13565     13567     13569
     13568     13567     13569     13567     13569     13570     13567     13569     13571
     13567     13569     13572     13570     13569     13571     13570     13569     13572
     13571     13569     13572     13569     13572     13573     13569     13572     13574
     13569     13572     13575     13573     13572     13574     13573     13572     13575
     13574     13572     13575     13572     13575     13576     13572     13575     13577
     13572     13575     13578     13576     13575     13577     13576     13575     13578
     13577     13575     13578     13575     13578     13579     13575     13578     13580
     13575     13578     13581     13579     13578     13580     13579     13578     13581
     13580     13578     13581     13578     13581     13582     13578     13581     13583
     13578     13581     13584     13582     13581     13583     13582     13581     13584
     13583     13581     13584     13581     13584     13585     13581     13584     13586
     13581     13584     13587     13585     13584     13586     13585     13584     13587
     13586     13584     13587     13584     13587     13588     13584     13587     13589
     13584     13587     13590     13588     13587     13589     13588     13587     13590
     13589     13587     13590     13587     13590     13591     13587     13590     13592
     13587     13590     13593     13591     13590     13592     13591     13590     13593
     13592     13590     13593      1731      1730      1732      1731      1730      1733
      1731      1730      1734      1732      1730      1733      1732      1730      1734
      1733      1730      1734      1730      1734      1735      1730      1734      1736
      1730      1734      1739      1735      1734      1736      1735      1734      1739
      1736      1734      1739      1734      1736      1737      1734      1736      1738
      1737      1736      1738      1734      1739      1740      1734      1739      1741
      1734      1739      1745      1740      1739      1741      1740      1739      1745
      1741      1739      1745      1743      1742      1744      1743      1742      1745
      1743      1742      1746      1744      1742      1745      1744      1742      1746
      1745      1742      1746      1739      1745      1742      1742      1746      1747
      1746      1747      1748      1746      1747      1749      1746      1747      1750
      1748      1747      1749      1748      1747      1750      1749      1747      1750
      1747      1750      1751      1747      1750      1752      1747      1750      1758
      1751      1750      1752      1751      1750      1758      1752      1750      1758
      1750      1752      1753      1752      1753      1754      1752      1753      1755
      1754      1753      1755      1753      1755      1756      1753      1755      1757
      1753      1755      1767      1756      1755      1757      1756      1755      1767
      1757      1755      1767      1750      1758      1759      1750      1758      1760
      1750      1758      1761      1759      1758      1760      1759      1758      1761
      1760      1758      1761      1758      1761      1762      1761      1762      1763
      1761      1762      1764      1763      1762      1764      1762      1764      1765
      1762      1764      1766      1762      1764      1814      1765      1764      1766
      1765      1764      1814      1766      1764      1814      1755      1767      1768
      1755      1767      1769      1755      1767      1770      1768      1767      1769
      1768      1767      1770      1769      1767      1770      1767      1770      1771
      1767      1770      1772      1767      1770      1773      1771      1770      1772
      1771      1770      1773      1772      1770      1773      1770      1773      1774
      1770      1773      1775      1774      1773      1775      1773      1775      1776
      1773      1775      1777      1776      1775      1777      1775      1777      1778
      1775      1777      1779      1775      1777      1780      1778      1777      1779
      1778      1777      1780      1779      1777      1780      1777      1780      1781
      1777      1780      1782      1781      1780      1782      1780      1782      1783
      1780      1782      1784      1783      1782      1784      1782      1784      1785
      1782      1784      1786      1782      1784      1787      1785      1784      1786
      1785      1784      1787      1786      1784      1787      1784      1787      1788
      1784      1787      1789      1788      1787      1789      1787      1789      1790
      1787      1789      1791      1790      1789      1791      1789      1791      1792
      1789      1791      1793      1789      1791      1794      1792      1791      1793
      1792      1791      1794      1793      1791      1794      1791      1794      1795
      1791      1794      1796      1795      1794      1796      1794      1796      1797
      1794      1796      1798      1797      1796      1798      1796      1798      1799
      1796      1798      1800      1796      1798      1801      1799      1798      1800
      1799      1798      1801      1800      1798      1801      1798      1801      1802
      1798      1801      1803      1798      1801      1804      1802      1801      1803
      1802      1801      1804      1803      1801      1804      1801      1804      1805
      1801      1804      1806      1801      1804      1807      1805      1804      1806
      1805      1804      1807      1806      1804      1807      1804      1807      1808
      1804      1807      1809      1804      1807      1810      1808      1807      1809
      1808      1807      1810      1809      1807      1810      1807      1810      1811
      1807      1810      1812      1807      1810      1813      1811      1810      1812
      1811      1810      1813      1812      1810      1813      1764      1814      1815
      1764      1814      1816      1764      1814      1817      1815      1814      1816
      1815      1814      1817      1816      1814      1817      1814      1817      1818
      1814      1817      1819      1814      1817      1820      1818      1817      1819
      1818      1817      1820      1819      1817      1820      1817      1820      1821
      1817      1820      1822      1817      1820      1823      1821      1820      1822
      1821      1820      1823      1822      1820      1823      1820      1823      1824
      1820      1823      1825      1820      1823      1826      1824      1823      1825
      1824      1823      1826      1825      1823      1826      1823      1826      1827
      1823      1826      1828      1823      1826      1829      1827      1826      1828
      1827      1826      1829      1828      1826      1829      1826      1829      1830
      1826      1829      1831      1826      1829      1832      1830      1829      1831
      1830      1829      1832      1831      1829      1832      1829      1832      1833
      1829      1832      1834      1829      1832      1835      1833      1832      1834
      1833      1832      1835      1834      1832      1835      1832      1835      1836
      1832      1835      1837      1832      1835      1838      1836      1835      1837
      1836      1835      1838      1837      1835      1838      1835      1838      1839
      1835      1838      1840      1835      1838      1841      1839      1838      1840
      1839      1838      1841      1840      1838      1841      1838      1841      1842
      1838      1841      1843      1838      1841      1844      1842      1841      1843
      1842      1841      1844      1843      1841      1844      1841      1844      1845
      1841      1844      1846      1841      1844      1847      1845      1844      1846
      1845      1844      1847      1846      1844      1847      1844      1847      1848
      1844      1847      1849      1844      1847      1850      1848      1847      1849
      1848      1847      1850      1849      1847      1850      1847      1850      1851
      1847      1850      1852      1847      1850      1853      1851      1850      1852
      1851      1850      1853      1852      1850      1853      1850      1853      1854
      1850      1853      1855      1850      1853      1856      1854      1853      1855
      1854      1853      1856      1855      1853      1856      1853      1856      1857
      1853      1856      1858      1853      1856      1859      1857      1856      1858
      1857      1856      1859      1858      1856      1859      1856      1859      1860
      1856      1859      1861      1856      1859      1862      1860      1859      1861
      1860      1859      1862      1861      1859      1862      5104      5103      5105
      5104      5103      5107      5104      5103      5149      5105      5103      5107
      5105      5103      5149      5107      5103      5149      5103      5105      5106
      5103      5107      5108      5103      5107      5109      5103      5107      5110
      5108      5107      5109      5108      5107      5110      5109      5107      5110
      5107      5110      5111      5107      5110      5141      5111      5110      5141
      5110      5111      5112      5110      5111      5113      5112      5111      5113
      5111      5113      5114      5111      5113      5115      5111      5113      5116
      5114      5113      5115      5114      5113      5116      5115      5113      5116
      5113      5116      5117      5113      5116      5118      5113      5116      5139
      5117      5116      5118      5117      5116      5139      5118      5116      5139
      5116      5118      5119      5116      5118      5120      5116      5118      5128
      5119      5118      5120      5119      5118      5128      5120      5118      5128
      5118      5120      5121      5118      5120      5122      5118      5120      5123
      5121      5120      5122      5121      5120      5123      5122      5120      5123
      5120      5123      5124      5120      5123      5125      5120      5123      5126
      5124      5123      5125      5124      5123      5126      5125      5123      5126
      5123      5126      5127      5123      5126      5128      5123      5126      5152
      5127      5126      5128      5127      5126      5152      5128      5126      5152
      5118      5128      5126      5118      5128      5129      5118      5128      5133
      5126      5128      5129      5126      5128      5133      5129      5128      5133
      5128      5129      5130      5128      5129      5131      5128      5129      5132
      5130      5129      5131      5130      5129      5132      5131      5129      5132
      5128      5133      5134      5128      5133      5135      5128      5133      5136
      5134      5133      5135      5134      5133      5136      5135      5133      5136
      5133      5136      5137      5133      5136      5138      5133      5136      5139
      5137      5136      5138      5137      5136      5139      5138      5136      5139
      5116      5139      5136      5116      5139      5140      5116      5139      5141
      5136      5139      5140      5136      5139      5141      5140      5139      5141
      5110      5141      5139      5110      5141      5142      5110      5141      5146
      5139      5141      5142      5139      5141      5146      5142      5141      5146
      5141      5142      5143      5141      5142      5144      5141      5142      5145
      5143      5142      5144      5143      5142      5145      5144      5142      5145
      5141      5146      5147      5141      5146      5148      5141      5146      5149
      5147      5146      5148      5147      5146      5149      5148      5146      5149
      5103      5149      5146      5103      5149      5150      5103      5149      5151
      5146      5149      5150      5146      5149      5151      5150      5149      5151
      5126      5152      5153      5126      5152      5154      5126      5152      5158
      5153      5152      5154      5153      5152      5158      5154      5152      5158
      5152      5154      5155      5152      5154      5156      5152      5154      5157
      5155      5154      5156      5155      5154      5157      5156      5154      5157
      5152      5158      5159      5152      5158      5160      5152      5158      5161
      5159      5158      5160      5159      5158      5161      5160      5158      5161
      5158      5161      5162      5158      5161      5163      5158      5161      5164
      5162      5161      5163      5162      5161      5164      5163      5161      5164
      5161      5164      5165      5161      5164      5166      5161      5164      5167
      5165      5164      5166      5165      5164      5167      5166      5164      5167
      5164      5167      5168      5164      5167      5169      5164      5167      5173
      5168      5167      5169      5168      5167      5173      5169      5167      5173
      5167      5169      5170      5167      5169      5171      5167      5169      5172
      5170      5169      5171      5170      5169      5172      5171      5169      5172
      5167      5173      5174      5167      5173      5175      5167      5173      5176
      5174      5173      5175      5174      5173      5176      5175      5173      5176
     13595     13594     13599     13595     13594     13603     13595     13594     13607
     13599     13594     13603     13599     13594     13607     13603     13594     13607
     13594     13595     13596     13594     13595     13597     13594     13595     13598
     13596     13595     13597     13596     13595     13598     13597     13595     13598
     13594     13599     13600     13594     13599     13601     13594     13599     13602
     13600     13599     13601     13600     13599     13602     13601     13599     13602
     13594     13603     13604     13594     13603     13605     13594     13603     13606
     13604     13603     13605     13604     13603     13606     13605     13603     13606
     13594     13607     13608     13594     13607     13609     13594     13607     13610
     13608     13607     13609     13608     13607     13610     13609     13607     13610
     13607     13610     13611     13607     13610     13612     13607     13610     13617
     13611     13610     13612     13611     13610     13617     13612     13610     13617
     13614     13613     13615     13614     13613     13616     13614     13613     13617
     13615     13613     13616     13615     13613     13617     13616     13613     13617
     13613     13616     13618     13610     13617     13613     13616     13618     13619
     13616     13618     13620     13616     13618     13623     13619     13618     13620
     13619     13618     13623     13620     13618     13623     13622     13621     13623
     13622     13621     13673     13623     13621     13673     13618     13623     13621
     13618     13623     13624     13618     13623     13625     13621     13623     13624
     13621     13623     13625     13624     13623     13625     13623     13625     13626
     13623     13625     13627     13623     13625     13629     13626     13625     13627
     13626     13625     13629     13627     13625     13629     13625     13627     13628
     13625     13629     13630     13625     13629     13631     13630     13629     13631
     13629     13631     13632     13629     13631     13633     13632     13631     13633
     13631     13633     13634     13631     13633     13635     13631     13633     13636
     13634     13633     13635     13634     13633     13636     13635     13633     13636
     13633     13636     13637     13633     13636     13638     13633     13636     13639
     13637     13636     13638     13637     13636     13639     13638     13636     13639
     13636     13639     13640     13636     13639     13641     13636     13639     13642
     13640     13639     13641     13640     13639     13642     13641     13639     13642
     13639     13642     13643     13639     13642     13644     13639     13642     13645
     13643     13642     13644     13643     13642     13645     13644     13642     13645
     13642     13645     13646     13642     13645     13647     13642     13645     13648
     13646     13645     13647     13646     13645     13648     13647     13645     13648
     13645     13648     13649     13645     13648     13650     13645     13648     13651
     13649     13648     13650     13649     13648     13651     13650     13648     13651
     13648     13651     13652     13648     13651     13653     13648     13651     13654
     13652     13651     13653     13652     13651     13654     13653     13651     13654
     13651     13654     13655     13651     13654     13656     13651     13654     13657
     13655     13654     13656     13655     13654     13657     13656     13654     13657
     13654     13657     13658     13654     13657     13659     13654     13657     13660
     13658     13657     13659     13658     13657     13660     13659     13657     13660
     13657     13660     13661     13657     13660     13662     13657     13660     13663
     13661     13660     13662     13661     13660     13663     13662     13660     13663
     13660     13663     13664     13660     13663     13665     13660     13663     13666
     13664     13663     13665     13664     13663     13666     13665     13663     13666
     13663     13666     13667     13663     13666     13668     13663     13666     13669
     13667     13666     13668     13667     13666     13669     13668     13666     13669
     13666     13669     13670     13666     13669     13671     13666     13669     13672
     13670     13669     13671     13670     13669     13672     13671     13669     13672
     13621     13673     13674     13621     13673     13675     13674     13673     13675
     13673     13675     13676     13673     13675     13677     13673     13675     13678
     13676     13675     13677     13676     13675     13678     13677     13675     13678
     13675     13678     13679     13675     13678     13680     13675     13678     13681
     13679     13678     13680     13679     13678     13681     13680     13678     13681
     13678     13681     13682     13678     13681     13683     13678     13681     13684
     13682     13681     13683     13682     13681     13684     13683     13681     13684
     13681     13684     13685     13681     13684     13686     13681     13684     13687
     13685     13684     13686     13685     13684     13687     13686     13684     13687
     13684     13687     13688     13684     13687     13689     13684     13687     13690
     13688     13687     13689     13688     13687     13690     13689     13687     13690
     13687     13690     13691     13687     13690     13692     13687     13690     13693
     13691     13690     13692     13691     13690     13693     13692     13690     13693
     13690     13693     13694     13690     13693     13695     13690     13693     13696
     13694     13693     13695     13694     13693     13696     13695     13693     13696
     13693     13696     13697     13693     13696     13698     13697     13696     13698
     13696     13698     13699     13696     13698     13700     13699     13698     13700
     13698     13700     13701     13698     13700     13702     13698     13700     13703
     13701     13700     13702     13701     13700     13703     13702     13700     13703
     13700     13703     13704     13700     13703     13705     13700     13703     13706
     13704     13703     13705     13704     13703     13706     13705     13703     13706
     13703     13706     13707     13703     13706     13708     13703     13706     13709
     13707     13706     13708     13707     13706     13709     13708     13706     13709
     13706     13709     13710     13706     13709     13711     13706     13709     13712
     13710     13709     13711     13710     13709     13712     13711     13709     13712
     13709     13712     13713     13709     13712     13714     13709     13712     13715
     13713     13712     13714     13713     13712     13715     13714     13712     13715
     13712     13715     13716     13712     13715     13717     13712     13715     13718
     13716     13715     13717     13716     13715     13718     13717     13715     13718
     13715     13718     13719     13715     13718     13720     13715     13718     13721
     13719     13718     13720     13719     13718     13721     13720     13718     13721
     13718     13721     13722     13718     13721     13723     13718     13721     13724
     13722     13721     13723     13722     13721     13724     13723     13721     13724
     13726     13725     13730     13726     13725     13734     13726     13725     13738
     13730     13725     13734     13730     13725     13738     13734     13725     13738
     13725     13726     13727     13725     13726     13728     13725     13726     13729
     13727     13726     13728     13727     13726     13729     13728     13726     13729
     13725     13730     13731     13725     13730     13732     13725     13730     13733
     13731     13730     13732     13731     13730     13733     13732     13730     13733
     13725     13734     13735     13725     13734     13736     13725     13734     13737
     13735     13734     13736     13735     13734     13737     13736     13734     13737
     13725     13738     13739     13725     13738     13740     13725     13738     13741
     13739     13738     13740     13739     13738     13741     13740     13738     13741
     13738     13741     13742     13738     13741     13743     13738     13741     13748
     13742     13741     13743     13742     13741     13748     13743     13741     13748
     13745     13744     13746     13745     13744     13747     13745     13744     13748
     13746     13744     13747     13746     13744     13748     13747     13744     13748
     13744     13747     13749     13741     13748     13744     13747     13749     13750
     13747     13749     13751     13747     13749     13754     13750     13749     13751
     13750     13749     13754     13751     13749     13754     13753     13752     13754
     13753     13752     13804     13754     13752     13804     13749     13754     13752
     13749     13754     13755     13749     13754     13756     13752     13754     13755
     13752     13754     13756     13755     13754     13756     13754     13756     13757
     13754     13756     13758     13754     13756     13760     13757     13756     13758
     13757     13756     13760     13758     13756     13760     13756     13758     13759
     13756     13760     13761     13756     13760     13762     13761     13760     13762
     13760     13762     13763     13760     13762     13764     13763     13762     13764
     13762     13764     13765     13762     13764     13766     13762     13764     13767
     13765     13764     13766     13765     13764     13767     13766     13764     13767
     13764     13767     13768     13764     13767     13769     13764     13767     13770
     13768     13767     13769     13768     13767     13770     13769     13767     13770
     13767     13770     13771     13767     13770     13772     13767     13770     13773
     13771     13770     13772     13771     13770     13773     13772     13770     13773
     13770     13773     13774     13770     13773     13775     13770     13773     13776
     13774     13773     13775     13774     13773     13776     13775     13773     13776
     13773     13776     13777     13773     13776     13778     13773     13776     13779
     13777     13776     13778     13777     13776     13779     13778     13776     13779
     13776     13779     13780     13776     13779     13781     13776     13779     13782
     13780     13779     13781     13780     13779     13782     13781     13779     13782
     13779     13782     13783     13779     13782     13784     13779     13782     13785
     13783     13782     13784     13783     13782     13785     13784     13782     13785
     13782     13785     13786     13782     13785     13787     13782     13785     13788
     13786     13785     13787     13786     13785     13788     13787     13785     13788
     13785     13788     13789     13785     13788     13790     13785     13788     13791
     13789     13788     13790     13789     13788     13791     13790     13788     13791
     13788     13791     13792     13788     13791     13793     13788     13791     13794
     13792     13791     13793     13792     13791     13794     13793     13791     13794
     13791     13794     13795     13791     13794     13796     13791     13794     13797
     13795     13794     13796     13795     13794     13797     13796     13794     13797
     13794     13797     13798     13794     13797     13799     13794     13797     13800
     13798     13797     13799     13798     13797     13800     13799     13797     13800
     13797     13800     13801     13797     13800     13802     13797     13800     13803
     13801     13800     13802     13801     13800     13803     13802     13800     13803
     13752     13804     13805     13752     13804     13806     13805     13804     13806
     13804     13806     13807     13804     13806     13808     13804     13806     13809
     13807     13806     13808     13807     13806     13809     13808     13806     13809
     13806     13809     13810     13806     13809     13811     13806     13809     13812
     13810     13809     13811     13810     13809     13812     13811     13809     13812
     13809     13812     13813     13809     13812     13814     13809     13812     13815
     13813     13812     13814     13813     13812     13815     13814     13812     13815
     13812     13815     13816     13812     13815     13817     13812     13815     13818
     13816     13815     13817     13816     13815     13818     13817     13815     13818
     13815     13818     13819     13815     13818     13820     13815     13818     13821
     13819     13818     13820     13819     13818     13821     13820     13818     13821
     13818     13821     13822     13818     13821     13823     13818     13821     13824
     13822     13821     13823     13822     13821     13824     13823     13821     13824
     13821     13824     13825     13821     13824     13826     13821     13824     13827
     13825     13824     13826     13825     13824     13827     13826     13824     13827
     13824     13827     13828     13824     13827     13829     13828     13827     13829
     13827     13829     13830     13827     13829     13831     13830     13829     13831
     13829     13831     13832     13829     13831     13833     13829     13831     13834
     13832     13831     13833     13832     13831     13834     13833     13831     13834
     13831     13834     13835     13831     13834     13836     13831     13834     13837
     13835     13834     13836     13835     13834     13837     13836     13834     13837
     13834     13837     13838     13834     13837     13839     13834     13837     13840
     13838     13837     13839     13838     13837     13840     13839     13837     13840
     13837     13840     13841     13837     13840     13842     13837     13840     13843
     13841     13840     13842     13841     13840     13843     13842     13840     13843
     13840     13843     13844     13840     13843     13845     13840     13843     13846
     13844     13843     13845     13844     13843     13846     13845     13843     13846
     13843     13846     13847     13843     13846     13848     13843     13846     13849
     13847     13846     13848     13847     13846     13849     13848     13846     13849
     13846     13849     13850     13846     13849     13851     13846     13849     13852
     13850     13849     13851     13850     13849     13852     13851     13849     13852
     13849     13852     13853     13849     13852     13854     13849     13852     13855
     13853     13852     13854     13853     13852     13855     13854     13852     13855
     17787     17786     17788     17787     17786     17789     17787     17786     17790
     17788     17786     17789     17788     17786     17790     17789     17786     17790
     17786     17790     17791     17786     17790     17792     17786     17790     17793
     17791     17790     17792     17791     17790     17793     17792     17790     17793
     17790     17793     17794     17790     17793     17795     17790     17793     17799
     17794     17793     17795     17794     17793     17799     17795     17793     17799
     17797     17796     17798     17797     17796     17799     17797     17796     17800
     17798     17796     17799     17798     17796     17800     17799     17796     17800
     17793     17799     17796     17796     17800     17801     17800     17801     17802
     17800     17801     17803     17800     17801     17804     17802     17801     17803
     17802     17801     17804     17803     17801     17804     17801     17804     17805
     17801     17804     17806     17801     17804     17812     17805     17804     17806
     17805     17804     17812     17806     17804     17812     17804     17806     17807
     17806     17807     17808     17806     17807     17809     17808     17807     17809
     17807     17809     17810     17807     17809     17811     17807     17809     17821
     17810     17809     17811     17810     17809     17821     17811     17809     17821
     17804     17812     17813     17804     17812     17814     17804     17812     17815
     17813     17812     17814     17813     17812     17815     17814     17812     17815
     17812     17815     17816     17815     17816     17817     17815     17816     17818
     17817     17816     17818     17816     17818     17819     17816     17818     17820
     17816     17818     17868     17819     17818     17820     17819     17818     17868
     17820     17818     17868     17809     17821     17822     17809     17821     17823
     17809     17821     17824     17822     17821     17823     17822     17821     17824
     17823     17821     17824     17821     17824     17825     17821     17824     17826
     17821     17824     17827     17825     17824     17826     17825     17824     17827
     17826     17824     17827     17824     17827     17828     17824     17827     17829
     17828     17827     17829     17827     17829     17830     17827     17829     17831
     17830     17829     17831     17829     17831     17832     17829     17831     17833
     17829     17831     17834     17832     17831     17833     17832     17831     17834
     17833     17831     17834     17831     17834     17835     17831     17834     17836
     17835     17834     17836     17834     17836     17837     17834     17836     17838
     17837     17836     17838     17836     17838     17839     17836     17838     17840
     17836     17838     17841     17839     17838     17840     17839     17838     17841
     17840     17838     17841     17838     17841     17842     17838     17841     17843
     17842     17841     17843     17841     17843     17844     17841     17843     17845
     17844     17843     17845     17843     17845     17846     17843     17845     17847
     17843     17845     17848     17846     17845     17847     17846     17845     17848
     17847     17845     17848     17845     17848     17849     17845     17848     17850
     17849     17848     17850     17848     17850     17851     17848     17850     17852
     17851     17850     17852     17850     17852     17853     17850     17852     17854
     17850     17852     17855     17853     17852     17854     17853     17852     17855
     17854     17852     17855     17852     17855     17856     17852     17855     17857
     17852     17855     17858     17856     17855     17857     17856     17855     17858
     17857     17855     17858     17855     17858     17859     17855     17858     17860
     17855     17858     17861     17859     17858     17860     17859     17858     17861
     17860     17858     17861     17858     17861     17862     17858     17861     17863
     17858     17861     17864     17862     17861     17863     17862     17861     17864
     17863     17861     17864     17861     17864     17865     17861     17864     17866
     17861     17864     17867     17865     17864     17866     17865     17864     17867
     17866     17864     17867     17818     17868     17869     17818     17868     17870
     17818     17868     17871     17869     17868     17870     17869     17868     17871
     17870     17868     17871     17868     17871     17872     17868     17871     17873
     17868     17871     17874     17872     17871     17873     17872     17871     17874
     17873     17871     17874     17871     17874     17875     17871     17874     17876
     17871     17874     17877     17875     17874     17876     17875     17874     17877
     17876     17874     17877     17874     17877     17878     17874     17877     17879
     17874     17877     17880     17878     17877     17879     17878     17877     17880
     17879     17877     17880     17877     17880     17881     17877     17880     17882
     17877     17880     17883     17881     17880     17882     17881     17880     17883
     17882     17880     17883     17880     17883     17884     17880     17883     17885
     17880     17883     17886     17884     17883     17885     17884     17883     17886
     17885     17883     17886     17883     17886     17887     17883     17886     17888
     17883     17886     17889     17887     17886     17888     17887     17886     17889
     17888     17886     17889     17886     17889     17890     17886     17889     17891
     17886     17889     17892     17890     17889     17891     17890     17889     17892
     17891     17889     17892     17889     17892     17893     17889     17892     17894
     17889     17892     17895     17893     17892     17894     17893     17892     17895
     17894     17892     17895     17892     17895     17896     17892     17895     17897
     17892     17895     17898     17896     17895     17897     17896     17895     17898
     17897     17895     17898     17895     17898     17899     17895     17898     17900
     17895     17898     17901     17899     17898     17900     17899     17898     17901
     17900     17898     17901     17898     17901     17902     17898     17901     17903
     17898     17901     17904     17902     17901     17903     17902     17901     17904
     17903     17901     17904     17901     17904     17905     17901     17904     17906
     17901     17904     17907     17905     17904     17906     17905     17904     17907
     17906     17904     17907     17904     17907     17908     17904     17907     17909
     17904     17907     17910     17908     17907     17909     17908     17907     17910
     17909     17907     17910     17907     17910     17911     17907     17910     17912
     17907     17910     17913     17911     17910     17912     17911     17910     17913
     17912     17910     17913     17910     17913     17914     17910     17913     17915
     17910     17913     17916     17914     17913     17915     17914     17913     17916
     17915     17913     17916      9498      9497      9501      9498      9497      9505
      9498      9497      9509      9501      9497      9505      9501      9497      9509
      9505      9497      9509      9497      9498      9499      9497      9498      9500
      9497      9498      9513      9499      9498      9500      9499      9498      9513
      9500      9498      9513      9497      9501      9502      9497      9501      9503
      9497      9501      9504      9502      9501      9503      9502      9501      9504
      9503      9501      9504      9497      9505      9506      9497      9505      9507
      9497      9505      9508      9506      9505      9507      9506      9505      9508
      9507      9505      9508      9497      9509      9510      9497      9509      9511
      9497      9509      9512      9510      9509      9511      9510      9509      9512
      9511      9509      9512      9498      9513      9514      9498      9513      9515
      9498      9513      9519      9514      9513      9515      9514      9513      9519
      9515      9513      9519      9517      9516      9518      9517      9516      9519
      9517      9516      9520      9518      9516      9519      9518      9516      9520
      9519      9516      9520      9513      9519      9516      9516      9520      9521
      9520      9521      9522      9520      9521      9523      9520      9521      9524
      9522      9521      9523      9522      9521      9524      9523      9521      9524
      9521      9524      9525      9521      9524      9526      9521      9524      9532
      9525      9524      9526      9525      9524      9532      9526      9524      9532
      9524      9526      9527      9526      9527      9528      9526      9527      9529
      9528      9527      9529      9527      9529      9530      9527      9529      9531
      9527      9529      9541      9530      9529      9531      9530      9529      9541
      9531      9529      9541      9524      9532      9533      9524      9532      9534
      9524      9532      9535      9533      9532      9534      9533      9532      9535
      9534      9532      9535      9532      9535      9536      9535      9536      9537
      9535      9536      9538      9537      9536      9538      9536      9538      9539
      9536      9538      9540      9536      9538      9588      9539      9538      9540
      9539      9538      9588      9540      9538      9588      9529      9541      9542
      9529      9541      9543      9529      9541      9544      9542      9541      9543
      9542      9541      9544      9543      9541      9544      9541      9544      9545
      9541      9544      9546      9541      9544      9547      9545      9544      9546
      9545      9544      9547      9546      9544      9547      9544      9547      9548
      9544      9547      9549      9548      9547      9549      9547      9549      9550
      9547      9549      9551      9550      9549      9551      9549      9551      9552
      9549      9551      9553      9549      9551      9554      9552      9551      9553
      9552      9551      9554      9553      9551      9554      9551      9554      9555
      9551      9554      9556      9555      9554      9556      9554      9556      9557
      9554      9556      9558      9557      9556      9558      9556      9558      9559
      9556      9558      9560      9556      9558      9561      9559      9558      9560
      9559      9558      9561      9560      9558      9561      9558      9561      9562
      9558      9561      9563      9562      9561      9563      9561      9563      9564
      9561      9563      9565      9564      9563      9565      9563      9565      9566
      9563      9565      9567      9563      9565      9568      9566      9565      9567
      9566      9565      9568      9567      9565      9568      9565      9568      9569
      9565      9568      9570      9569      9568      9570      9568      9570      9571
      9568      9570      9572      9571      9570      9572      9570      9572      9573
      9570      9572      9574      9570      9572      9575      9573      9572      9574
      9573      9572      9575      9574      9572      9575      9572      9575      9576
      9572      9575      9577      9572      9575      9578      9576      9575      9577
      9576      9575      9578      9577      9575      9578      9575      9578      9579
      9575      9578      9580      9575      9578      9581      9579      9578      9580
      9579      9578      9581      9580      9578      9581      9578      9581      9582
      9578      9581      9583      9578      9581      9584      9582      9581      9583
      9582      9581      9584      9583      9581      9584      9581      9584      9585
      9581      9584      9586      9581      9584      9587      9585      9584      9586
      9585      9584      9587      9586      9584      9587      9538      9588      9589
      9538      9588      9590      9538      9588      9591      9589      9588      9590
      9589      9588      9591      9590      9588      9591      9588      9591      9592
      9588      9591      9593      9588      9591      9594      9592      9591      9593
      9592      9591      9594      9593      9591      9594      9591      9594      9595
      9591      9594      9596      9591      9594      9597      9595      9594      9596
      9595      9594      9597      9596      9594      9597      9594      9597      9598
      9594      9597      9599      9594      9597      9600      9598      9597      9599
      9598      9597      9600      9599      9597      9600      9597      9600      9601
      9597      9600      9602      9597      9600      9603      9601      9600      9602
      9601      9600      9603      9602      9600      9603      9600      9603      9604
      9600      9603      9605      9600      9603      9606      9604      9603      9605
      9604      9603      9606      9605      9603      9606      9603      9606      9607
      9603      9606      9608      9603      9606      9609      9607      9606      9608
      9607      9606      9609      9608      9606      9609      9606      9609      9610
      9606      9609      9611      9606      9609      9612      9610      9609      9611
      9610      9609      9612      9611      9609      9612      9609      9612      9613
      9609      9612      9614      9609      9612      9615      9613      9612      9614
      9613      9612      9615      9614      9612      9615      9612      9615      9616
      9612      9615      9617      9612      9615      9618      9616      9615      9617
      9616      9615      9618      9617      9615      9618      9615      9618      9619
      9615      9618      9620      9615      9618      9621      9619      9618      9620
      9619      9618      9621      9620      9618      9621      9618      9621      9622
      9618      9621      9623      9618      9621      9624      9622      9621      9623
      9622      9621      9624      9623      9621      9624      9621      9624      9625
      9621      9624      9626      9621      9624      9627      9625      9624      9626
      9625      9624      9627      9626      9624      9627      9624      9627      9628
      9624      9627      9629      9624      9627      9630      9628      9627      9629
      9628      9627      9630      9629      9627      9630      9627      9630      9631
      9627      9630      9632      9627      9630      9633      9631      9630      9632
      9631      9630      9633      9632      9630      9633      9630      9633      9634
      9630      9633      9635      9630      9633      9636      9634      9633      9635
      9634      9633      9636      9635      9633      9636     13857     13856     13861
     13857     13856     13865     13857     13856     13869     13861     13856     13865
     13861     13856     13869     13865     13856     13869     13856     13857     13858
     13856     13857     13859     13856     13857     13860     13858     13857     13859
     13858     13857     13860     13859     13857     13860     13856     13861     13862
     13856     13861     13863     13856     13861     13864     13862     13861     13863
     13862     13861     13864     13863     13861     13864     13856     13865     13866
     13856     13865     13867     13856     13865     13868     13866     13865     13867
     13866     13865     13868     13867     13865     13868     13856     13869     13870
     13856     13869     13871     13856     13869     13872     13870     13869     13871
     13870     13869     13872     13871     13869     13872     13869     13872     13873
     13869     13872     13874     13869     13872     13879     13873     13872     13874
     13873     13872     13879     13874     13872     13879     13876     13875     13877
     13876     13875     13878     13876     13875     13879     13877     13875     13878
     13877     13875     13879     13878     13875     13879     13875     13878     13880
     13872     13879     13875     13878     13880     13881     13878     13880     13882
     13878     13880     13885     13881     13880     13882     13881     13880     13885
     13882     13880     13885     13884     13883     13885     13884     13883     13935
     13885     13883     13935     13880     13885     13883     13880     13885     13886
     13880     13885     13887     13883     13885     13886     13883     13885     13887
     13886     13885     13887     13885     13887     13888     13885     13887     13889
     13885     13887     13891     13888     13887     13889     13888     13887     13891
     13889     13887     13891     13887     13889     13890     13887     13891     13892
     13887     13891     13893     13892     13891     13893     13891     13893     13894
     13891     13893     13895     13894     13893     13895     13893     13895     13896
     13893     13895     13897     13893     13895     13898     13896     13895     13897
     13896     13895     13898     13897     13895     13898     13895     13898     13899
     13895     13898     13900     13895     13898     13901     13899     13898     13900
     13899     13898     13901     13900     13898     13901     13898     13901     13902
     13898     13901     13903     13898     13901     13904     13902     13901     13903
     13902     13901     13904     13903     13901     13904     13901     13904     13905
     13901     13904     13906     13901     13904     13907     13905     13904     13906
     13905     13904     13907     13906     13904     13907     13904     13907     13908
     13904     13907     13909     13904     13907     13910     13908     13907     13909
     13908     13907     13910     13909     13907     13910     13907     13910     13911
     13907     13910     13912     13907     13910     13913     13911     13910     13912
     13911     13910     13913     13912     13910     13913     13910     13913     13914
     13910     13913     13915     13910     13913     13916     13914     13913     13915
     13914     13913     13916     13915     13913     13916     13913     13916     13917
     13913     13916     13918     13913     13916     13919     13917     13916     13918
     13917     13916     13919     13918     13916     13919     13916     13919     13920
     13916     13919     13921     13916     13919     13922     13920     13919     13921
     13920     13919     13922     13921     13919     13922     13919     13922     13923
     13919     13922     13924     13919     13922     13925     13923     13922     13924
     13923     13922     13925     13924     13922     13925     13922     13925     13926
     13922     13925     13927     13922     13925     13928     13926     13925     13927
     13926     13925     13928     13927     13925     13928     13925     13928     13929
     13925     13928     13930     13925     13928     13931     13929     13928     13930
     13929     13928     13931     13930     13928     13931     13928     13931     13932
     13928     13931     13933     13928     13931     13934     13932     13931     13933
     13932     13931     13934     13933     13931     13934     13883     13935     13936
     13883     13935     13937     13936     13935     13937     13935     13937     13938
     13935     13937     13939     13935     13937     13940     13938     13937     13939
     13938     13937     13940     13939     13937     13940     13937     13940     13941
     13937     13940     13942     13937     13940     13943     13941     13940     13942
     13941     13940     13943     13942     13940     13943     13940     13943     13944
     13940     13943     13945     13940     13943     13946     13944     13943     13945
     13944     13943     13946     13945     13943     13946     13943     13946     13947
     13943     13946     13948     13943     13946     13949     13947     13946     13948
     13947     13946     13949     13948     13946     13949     13946     13949     13950
     13946     13949     13951     13946     13949     13952     13950     13949     13951
     13950     13949     13952     13951     13949     13952     13949     13952     13953
     13949     13952     13954     13949     13952     13955     13953     13952     13954
     13953     13952     13955     13954     13952     13955     13952     13955     13956
     13952     13955     13957     13952     13955     13958     13956     13955     13957
     13956     13955     13958     13957     13955     13958     13955     13958     13959
     13955     13958     13960     13959     13958     13960     13958     13960     13961
     13958     13960     13962     13961     13960     13962     13960     13962     13963
     13960     13962     13964     13960     13962     13965     13963     13962     13964
     13963     13962     13965     13964     13962     13965     13962     13965     13966
     13962     13965     13967     13962     13965     13968     13966     13965     13967
     13966     13965     13968     13967     13965     13968     13965     13968     13969
     13965     13968     13970     13965     13968     13971     13969     13968     13970
     13969     13968     13971     13970     13968     13971     13968     13971     13972
     13968     13971     13973     13968     13971     13974     13972     13971     13973
     13972     13971     13974     13973     13971     13974     13971     13974     13975
     13971     13974     13976     13971     13974     13977     13975     13974     13976
     13975     13974     13977     13976     13974     13977     13974     13977     13978
     13974     13977     13979     13974     13977     13980     13978     13977     13979
     13978     13977     13980     13979     13977     13980     13977     13980     13981
     13977     13980     13982     13977     13980     13983     13981     13980     13982
     13981     13980     13983     13982     13980     13983     13980     13983     13984
     13980     13983     13985     13980     13983     13986     13984     13983     13985
     13984     13983     13986     13985     13983     13986      5178      5177      5179
      5178      5177      5181      5178      5177      5223      5179      5177      5181
      5179      5177      5223      5181      5177      5223      5177      5179      5180
      5177      5181      5182      5177      5181      5183      5177      5181      5184
      5182      5181      5183      5182      5181      5184      5183      5181      5184
      5181      5184      5185      5181      5184      5215      5185      5184      5215
      5184      5185      5186      5184      5185      5187      5186      5185      5187
      5185      5187      5188      5185      5187      5189      5185      5187      5190
      5188      5187      5189      5188      5187      5190      5189      5187      5190
      5187      5190      5191      5187      5190      5192      5187      5190      5213
      5191      5190      5192      5191      5190      5213      5192      5190      5213
      5190      5192      5193      5190      5192      5194      5190      5192      5202
      5193      5192      5194      5193      5192      5202      5194      5192      5202
      5192      5194      5195      5192      5194      5196      5192      5194      5197
      5195      5194      5196      5195      5194      5197      5196      5194      5197
      5194      5197      5198      5194      5197      5199      5194      5197      5200
      5198      5197      5199      5198      5197      5200      5199      5197      5200
      5197      5200      5201      5197      5200      5202      5197      5200      5226
      5201      5200      5202      5201      5200      5226      5202      5200      5226
      5192      5202      5200      5192      5202      5203      5192      5202      5207
      5200      5202      5203      5200      5202      5207      5203      5202      5207
      5202      5203      5204      5202      5203      5205      5202      5203      5206
      5204      5203      5205      5204      5203      5206      5205      5203      5206
      5202      5207      5208      5202      5207      5209      5202      5207      5210
      5208      5207      5209      5208      5207      5210      5209      5207      5210
      5207      5210      5211      5207      5210      5212      5207      5210      5213
      5211      5210      5212      5211      5210      5213      5212      5210      5213
      5190      5213      5210      5190      5213      5214      5190      5213      5215
      5210      5213      5214      5210      5213      5215      5214      5213      5215
      5184      5215      5213      5184      5215      5216      5184      5215      5220
      5213      5215      5216      5213      5215      5220      5216      5215      5220
      5215      5216      5217      5215      5216      5218      5215      5216      5219
      5217      5216      5218      5217      5216      5219      5218      5216      5219
      5215      5220      5221      5215      5220      5222      5215      5220      5223
      5221      5220      5222      5221      5220      5223      5222      5220      5223
      5177      5223      5220      5177      5223      5224      5177      5223      5225
      5220      5223      5224      5220      5223      5225      5224      5223      5225
      5200      5226      5227      5200      5226      5228      5200      5226      5232
      5227      5226      5228      5227      5226      5232      5228      5226      5232
      5226      5228      5229      5226      5228      5230      5226      5228      5231
      5229      5228      5230      5229      5228      5231      5230      5228      5231
      5226      5232      5233      5226      5232      5234      5226      5232      5235
      5233      5232      5234      5233      5232      5235      5234      5232      5235
      5232      5235      5236      5232      5235      5237      5232      5235      5238
      5236      5235      5237      5236      5235      5238      5237      5235      5238
      5235      5238      5239      5235      5238      5240      5235      5238      5241
      5239      5238      5240      5239      5238      5241      5240      5238      5241
      5238      5241      5242      5238      5241      5243      5238      5241      5247
      5242      5241      5243      5242      5241      5247      5243      5241      5247
      5241      5243      5244      5241      5243      5245      5241      5243      5246
      5244      5243      5245      5244      5243      5246      5245      5243      5246
      5241      5247      5248      5241      5247      5249      5241      5247      5250
      5248      5247      5249      5248      5247      5250      5249      5247      5250
      1864      1863      1865      1864      1863      1866      1864      1863      1867
      1865      1863      1866      1865      1863      1867      1866      1863      1867
      1863      1867      1868      1863      1867      1869      1863      1867      1872
      1868      1867      1869      1868      1867      1872      1869      1867      1872
      1867      1869      1870      1867      1869      1871      1870      1869      1871
      1867      1872      1873      1867      1872      1874      1867      1872      1878
      1873      1872      1874      1873      1872      1878      1874      1872      1878
      1876      1875      1877      1876      1875      1878      1876      1875      1879
      1877      1875      1878      1877      1875      1879      1878      1875      1879
      1872      1878      1875      1875      1879      1880      1879      1880      1881
      1879      1880      1882      1879      1880      1883      1881      1880      1882
      1881      1880      1883      1882      1880      1883      1880      1883      1884
      1880      1883      1885      1880      1883      1891      1884      1883      1885
      1884      1883      1891      1885      1883      1891      1883      1885      1886
      1885      1886      1887      1885      1886      1888      1887      1886      1888
      1886      1888      1889      1886      1888      1890      1886      1888      1900
      1889      1888      1890      1889      1888      1900      1890      1888      1900
      1883      1891      1892      1883      1891      1893      1883      1891      1894
      1892      1891      1893      1892      1891      1894      1893      1891      1894
      1891      1894      1895      1894      1895      1896      1894      1895      1897
      1896      1895      1897      1895      1897      1898      1895      1897      1899
      1895      1897      1947      1898      1897      1899      1898      1897      1947
      1899      1897      1947      1888      1900      1901      1888      1900      1902
      1888      1900      1903      1901      1900      1902      1901      1900      1903
      1902      1900      1903      1900      1903      1904      1900      1903      1905
      1900      1903      1906      1904      1903      1905      1904      1903      1906
      1905      1903      1906      1903      1906      1907      1903      1906      1908
      1907      1906      1908      1906      1908      1909      1906      1908      1910
      1909      1908      1910      1908      1910      1911      1908      1910      1912
      1908      1910      1913      1911      1910      1912      1911      1910      1913
      1912      1910      1913      1910      1913      1914      1910      1913      1915
      1914      1913      1915      1913      1915      1916      1913      1915      1917
      1916      1915      1917      1915      1917      1918      1915      1917      1919
      1915      1917      1920      1918      1917      1919      1918      1917      1920
      1919      1917      1920      1917      1920      1921      1917      1920      1922
      1921      1920      1922      1920      1922      1923      1920      1922      1924
      1923      1922      1924      1922      1924      1925      1922      1924      1926
      1922      1924      1927      1925      1924      1926      1925      1924      1927
      1926      1924      1927      1924      1927      1928      1924      1927      1929
      1928      1927      1929      1927      1929      1930      1927      1929      1931
      1930      1929      1931      1929      1931      1932      1929      1931      1933
      1929      1931      1934      1932      1931      1933      1932      1931      1934
      1933      1931      1934      1931      1934      1935      1931      1934      1936
      1931      1934      1937      1935      1934      1936      1935      1934      1937
      1936      1934      1937      1934      1937      1938      1934      1937      1939
      1934      1937      1940      1938      1937      1939      1938      1937      1940
      1939      1937      1940      1937      1940      1941      1937      1940      1942
      1937      1940      1943      1941      1940      1942      1941      1940      1943
      1942      1940      1943      1940      1943      1944      1940      1943      1945
      1940      1943      1946      1944      1943      1945      1944      1943      1946
      1945      1943      1946      1897      1947      1948      1897      1947      1949
      1897      1947      1950      1948      1947      1949      1948      1947      1950
      1949      1947      1950      1947      1950      1951      1947      1950      1952
      1947      1950      1953      1951      1950      1952      1951      1950      1953
      1952      1950      1953      1950      1953      1954      1950      1953      1955
      1950      1953      1956      1954      1953      1955      1954      1953      1956
      1955      1953      1956      1953      1956      1957      1953      1956      1958
      1953      1956      1959      1957      1956      1958      1957      1956      1959
      1958      1956      1959      1956      1959      1960      1956      1959      1961
      1956      1959      1962      1960      1959      1961      1960      1959      1962
      1961      1959      1962      1959      1962      1963      1959      1962      1964
      1959      1962      1965      1963      1962      1964      1963      1962      1965
      1964      1962      1965      1962      1965      1966      1962      1965      1967
      1962      1965      1968      1966      1965      1967      1966      1965      1968
      1967      1965      1968      1965      1968      1969      1965      1968      1970
      1965      1968      1971      1969      1968      1970      1969      1968      1971
      1970      1968      1971      1968      1971      1972      1968      1971      1973
      1968      1971      1974      1972      1971      1973      1972      1971      1974
      1973      1971      1974      1971      1974      1975      1971      1974      1976
      1971      1974      1977      1975      1974      1976      1975      1974      1977
      1976      1974      1977      1974      1977      1978      1974      1977      1979
      1974      1977      1980      1978      1977      1979      1978      1977      1980
      1979      1977      1980      1977      1980      1981      1977      1980      1982
      1977      1980      1983      1981      1980      1982      1981      1980      1983
      1982      1980      1983      1980      1983      1984      1980      1983      1985
      1980      1983      1986      1984      1983      1985      1984      1983      1986
      1985      1983      1986      1983      1986      1987      1983      1986      1988
      1983      1986      1989      1987      1986      1988      1987      1986      1989
      1988      1986      1989      1986      1989      1990      1986      1989      1991
      1986      1989      1992      1990      1989      1991      1990      1989      1992
      1991      1989      1992      1989      1992      1993      1989      1992      1994
      1989      1992      1995      1993      1992      1994      1993      1992      1995
      1994      1992      1995      5252      5251      5253      5252      5251      5255
      5252      5251      5297      5253      5251      5255      5253      5251      5297
      5255      5251      5297      5251      5253      5254      5251      5255      5256
      5251      5255      5257      5251      5255      5258      5256      5255      5257
      5256      5255      5258      5257      5255      5258      5255      5258      5259
      5255      5258      5289      5259      5258      5289      5258      5259      5260
      5258      5259      5261      5260      5259      5261      5259      5261      5262
      5259      5261      5263      5259      5261      5264      5262      5261      5263
      5262      5261      5264      5263      5261      5264      5261      5264      5265
      5261      5264      5266      5261      5264      5287      5265      5264      5266
      5265      5264      5287      5266      5264      5287      5264      5266      5267
      5264      5266      5268      5264      5266      5276      5267      5266      5268
      5267      5266      5276      5268      5266      5276      5266      5268      5269
      5266      5268      5270      5266      5268      5271      5269      5268      5270
      5269      5268      5271      5270      5268      5271      5268      5271      5272
      5268      5271      5273      5268      5271      5274      5272      5271      5273
      5272      5271      5274      5273      5271      5274      5271      5274      5275
      5271      5274      5276      5271      5274      5300      5275      5274      5276
      5275      5274      5300      5276      5274      5300      5266      5276      5274
      5266      5276      5277      5266      5276      5281      5274      5276      5277
      5274      5276      5281      5277      5276      5281      5276      5277      5278
      5276      5277      5279      5276      5277      5280      5278      5277      5279
      5278      5277      5280      5279      5277      5280      5276      5281      5282
      5276      5281      5283      5276      5281      5284      5282      5281      5283
      5282      5281      5284      5283      5281      5284      5281      5284      5285
      5281      5284      5286      5281      5284      5287      5285      5284      5286
      5285      5284      5287      5286      5284      5287      5264      5287      5284
      5264      5287      5288      5264      5287      5289      5284      5287      5288
      5284      5287      5289      5288      5287      5289      5258      5289      5287
      5258      5289      5290      5258      5289      5294      5287      5289      5290
      5287      5289      5294      5290      5289      5294      5289      5290      5291
      5289      5290      5292      5289      5290      5293      5291      5290      5292
      5291      5290      5293      5292      5290      5293      5289      5294      5295
      5289      5294      5296      5289      5294      5297      5295      5294      5296
      5295      5294      5297      5296      5294      5297      5251      5297      5294
      5251      5297      5298      5251      5297      5299      5294      5297      5298
      5294      5297      5299      5298      5297      5299      5274      5300      5301
      5274      5300      5302      5274      5300      5306      5301      5300      5302
      5301      5300      5306      5302      5300      5306      5300      5302      5303
      5300      5302      5304      5300      5302      5305      5303      5302      5304
      5303      5302      5305      5304      5302      5305      5300      5306      5307
      5300      5306      5308      5300      5306      5309      5307      5306      5308
      5307      5306      5309      5308      5306      5309      5306      5309      5310
      5306      5309      5311      5306      5309      5312      5310      5309      5311
      5310      5309      5312      5311      5309      5312      5309      5312      5313
      5309      5312      5314      5309      5312      5315      5313      5312      5314
      5313      5312      5315      5314      5312      5315      5312      5315      5316
      5312      5315      5317      5312      5315      5321      5316      5315      5317
      5316      5315      5321      5317      5315      5321      5315      5317      5318
      5315      5317      5319      5315      5317      5320      5318      5317      5319
      5318      5317      5320      5319      5317      5320      5315      5321      5322
      5315      5321      5323      5315      5321      5324      5322      5321      5323
      5322      5321      5324      5323      5321      5324      1997      1996      1998
      1997      1996      1999      1997      1996      2000      1998      1996      1999
      1998      1996      2000      1999      1996      2000      1996      2000      2001
      1996      2000      2002      1996      2000      2005      2001      2000      2002
      2001      2000      2005      2002      2000      2005      2000      2002      2003
      2000      2002      2004      2003      2002      2004      2000      2005      2006
      2000      2005      2007      2000      2005      2011      2006      2005      2007
      2006      2005      2011      2007      2005      2011      2009      2008      2010
      2009      2008      2011      2009      2008      2012      2010      2008      2011
      2010      2008      2012      2011      2008      2012      2005      2011      2008
      2008      2012      2013      2012      2013      2014      2012      2013      2015
      2012      2013      2016      2014      2013      2015      2014      2013      2016
      2015      2013      2016      2013      2016      2017      2013      2016      2018
      2013      2016      2024      2017      2016      2018      2017      2016      2024
      2018      2016      2024      2016      2018      2019      2018      2019      2020
      2018      2019      2021      2020      2019      2021      2019      2021      2022
      2019      2021      2023      2019      2021      2033      2022      2021      2023
      2022      2021      2033      2023      2021      2033      2016      2024      2025
      2016      2024      2026      2016      2024      2027      2025      2024      2026
      2025      2024      2027      2026      2024      2027      2024      2027      2028
      2027      2028      2029      2027      2028      2030      2029      2028      2030
      2028      2030      2031      2028      2030      2032      2028      2030      2080
      2031      2030      2032      2031      2030      2080      2032      2030      2080
      2021      2033      2034      2021      2033      2035      2021      2033      2036
      2034      2033      2035      2034      2033      2036      2035      2033      2036
      2033      2036      2037      2033      2036      2038      2033      2036      2039
      2037      2036      2038      2037      2036      2039      2038      2036      2039
      2036      2039      2040      2036      2039      2041      2040      2039      2041
      2039      2041      2042      2039      2041      2043      2042      2041      2043
      2041      2043      2044      2041      2043      2045      2041      2043      2046
      2044      2043      2045      2044      2043      2046      2045      2043      2046
      2043      2046      2047      2043      2046      2048      2047      2046      2048
      2046      2048      2049      2046      2048      2050      2049      2048      2050
      2048      2050      2051      2048      2050      2052      2048      2050      2053
      2051      2050      2052      2051      2050      2053      2052      2050      2053
      2050      2053      2054      2050      2053      2055      2054      2053      2055
      2053      2055      2056      2053      2055      2057      2056      2055      2057
      2055      2057      2058      2055      2057      2059      2055      2057      2060
      2058      2057      2059      2058      2057      2060      2059      2057      2060
      2057      2060      2061      2057      2060      2062      2061      2060      2062
      2060      2062      2063      2060      2062      2064      2063      2062      2064
      2062      2064      2065      2062      2064      2066      2062      2064      2067
      2065      2064      2066      2065      2064      2067      2066      2064      2067
      2064      2067      2068      2064      2067      2069      2064      2067      2070
      2068      2067      2069      2068      2067      2070      2069      2067      2070
      2067      2070      2071      2067      2070      2072      2067      2070      2073
      2071      2070      2072      2071      2070      2073      2072      2070      2073
      2070      2073      2074      2070      2073      2075      2070      2073      2076
      2074      2073      2075      2074      2073      2076      2075      2073      2076
      2073      2076      2077      2073      2076      2078      2073      2076      2079
      2077      2076      2078      2077      2076      2079      2078      2076      2079
      2030      2080      2081      2030      2080      2082      2030      2080      2083
      2081      2080      2082      2081      2080      2083      2082      2080      2083
      2080      2083      2084      2080      2083      2085      2080      2083      2086
      2084      2083      2085      2084      2083      2086      2085      2083      2086
      2083      2086      2087      2083      2086      2088      2083      2086      2089
      2087      2086      2088      2087      2086      2089      2088      2086      2089
      2086      2089      2090      2086      2089      2091      2086      2089      2092
      2090      2089      2091      2090      2089      2092      2091      2089      2092
      2089      2092      2093      2089      2092      2094      2089      2092      2095
      2093      2092      2094      2093      2092      2095      2094      2092      2095
      2092      2095      2096      2092      2095      2097      2092      2095      2098
      2096      2095      2097      2096      2095      2098      2097      2095      2098
      2095      2098      2099      2095      2098      2100      2095      2098      2101
      2099      2098      2100      2099      2098      2101      2100      2098      2101
      2098      2101      2102      2098      2101      2103      2098      2101      2104
      2102      2101      2103      2102      2101      2104      2103      2101      2104
      2101      2104      2105      2101      2104      2106      2101      2104      2107
      2105      2104      2106      2105      2104      2107      2106      2104      2107
      2104      2107      2108      2104      2107      2109      2104      2107      2110
      2108      2107      2109      2108      2107      2110      2109      2107      2110
      2107      2110      2111      2107      2110      2112      2107      2110      2113
      2111      2110      2112      2111      2110      2113      2112      2110      2113
      2110      2113      2114      2110      2113      2115      2110      2113      2116
      2114      2113      2115      2114      2113      2116      2115      2113      2116
      2113      2116      2117      2113      2116      2118      2113      2116      2119
      2117      2116      2118      2117      2116      2119      2118      2116      2119
      2116      2119      2120      2116      2119      2121      2116      2119      2122
      2120      2119      2121      2120      2119      2122      2121      2119      2122
      2119      2122      2123      2119      2122      2124      2119      2122      2125
      2123      2122      2124      2123      2122      2125      2124      2122      2125
      2122      2125      2126      2122      2125      2127      2122      2125      2128
      2126      2125      2127      2126      2125      2128      2127      2125      2128
     13988     13987     13992     13988     13987     13996     13988     13987     14000
     13992     13987     13996     13992     13987     14000     13996     13987     14000
     13987     13988     13989     13987     13988     13990     13987     13988     13991
     13989     13988     13990     13989     13988     13991     13990     13988     13991
     13987     13992     13993     13987     13992     13994     13987     13992     13995
     13993     13992     13994     13993     13992     13995     13994     13992     13995
     13987     13996     13997     13987     13996     13998     13987     13996     13999
     13997     13996     13998     13997     13996     13999     13998     13996     13999
     13987     14000     14001     13987     14000     14002     13987     14000     14003
     14001     14000     14002     14001     14000     14003     14002     14000     14003
     14000     14003     14004     14000     14003     14005     14000     14003     14010
     14004     14003     14005     14004     14003     14010     14005     14003     14010
     14007     14006     14008     14007     14006     14009     14007     14006     14010
     14008     14006     14009     14008     14006     14010     14009     14006     14010
     14006     14009     14011     14003     14010     14006     14009     14011     14012
     14009     14011     14013     14009     14011     14016     14012     14011     14013
     14012     14011     14016     14013     14011     14016     14015     14014     14016
     14015     14014     14066     14016     14014     14066     14011     14016     14014
     14011     14016     14017     14011     14016     14018     14014     14016     14017
     14014     14016     14018     14017     14016     14018     14016     14018     14019
     14016     14018     14020     14016     14018     14022     14019     14018     14020
     14019     14018     14022     14020     14018     14022     14018     14020     14021
     14018     14022     14023     14018     14022     14024     14023     14022     14024
     14022     14024     14025     14022     14024     14026     14025     14024     14026
     14024     14026     14027     14024     14026     14028     14024     14026     14029
     14027     14026     14028     14027     14026     14029     14028     14026     14029
     14026     14029     14030     14026     14029     14031     14026     14029     14032
     14030     14029     14031     14030     14029     14032     14031     14029     14032
     14029     14032     14033     14029     14032     14034     14029     14032     14035
     14033     14032     14034     14033     14032     14035     14034     14032     14035
     14032     14035     14036     14032     14035     14037     14032     14035     14038
     14036     14035     14037     14036     14035     14038     14037     14035     14038
     14035     14038     14039     14035     14038     14040     14035     14038     14041
     14039     14038     14040     14039     14038     14041     14040     14038     14041
     14038     14041     14042     14038     14041     14043     14038     14041     14044
     14042     14041     14043     14042     14041     14044     14043     14041     14044
     14041     14044     14045     14041     14044     14046     14041     14044     14047
     14045     14044     14046     14045     14044     14047     14046     14044     14047
     14044     14047     14048     14044     14047     14049     14044     14047     14050
     14048     14047     14049     14048     14047     14050     14049     14047     14050
     14047     14050     14051     14047     14050     14052     14047     14050     14053
     14051     14050     14052     14051     14050     14053     14052     14050     14053
     14050     14053     14054     14050     14053     14055     14050     14053     14056
     14054     14053     14055     14054     14053     14056     14055     14053     14056
     14053     14056     14057     14053     14056     14058     14053     14056     14059
     14057     14056     14058     14057     14056     14059     14058     14056     14059
     14056     14059     14060     14056     14059     14061     14056     14059     14062
     14060     14059     14061     14060     14059     14062     14061     14059     14062
     14059     14062     14063     14059     14062     14064     14059     14062     14065
     14063     14062     14064     14063     14062     14065     14064     14062     14065
     14014     14066     14067     14014     14066     14068     14067     14066     14068
     14066     14068     14069     14066     14068     14070     14066     14068     14071
     14069     14068     14070     14069     14068     14071     14070     14068     14071
     14068     14071     14072     14068     14071     14073     14068     14071     14074
     14072     14071     14073     14072     14071     14074     14073     14071     14074
     14071     14074     14075     14071     14074     14076     14071     14074     14077
     14075     14074     14076     14075     14074     14077     14076     14074     14077
     14074     14077     14078     14074     14077     14079     14074     14077     14080
     14078     14077     14079     14078     14077     14080     14079     14077     14080
     14077     14080     14081     14077     14080     14082     14077     14080     14083
     14081     14080     14082     14081     14080     14083     14082     14080     14083
     14080     14083     14084     14080     14083     14085     14080     14083     14086
     14084     14083     14085     14084     14083     14086     14085     14083     14086
     14083     14086     14087     14083     14086     14088     14083     14086     14089
     14087     14086     14088     14087     14086     14089     14088     14086     14089
     14086     14089     14090     14086     14089     14091     14090     14089     14091
     14089     14091     14092     14089     14091     14093     14092     14091     14093
     14091     14093     14094     14091     14093     14095     14091     14093     14096
     14094     14093     14095     14094     14093     14096     14095     14093     14096
     14093     14096     14097     14093     14096     14098     14093     14096     14099
     14097     14096     14098     14097     14096     14099     14098     14096     14099
     14096     14099     14100     14096     14099     14101     14096     14099     14102
     14100     14099     14101     14100     14099     14102     14101     14099     14102
     14099     14102     14103     14099     14102     14104     14099     14102     14105
     14103     14102     14104     14103     14102     14105     14104     14102     14105
     14102     14105     14106     14102     14105     14107     14102     14105     14108
     14106     14105     14107     14106     14105     14108     14107     14105     14108
     14105     14108     14109     14105     14108     14110     14105     14108     14111
     14109     14108     14110     14109     14108     14111     14110     14108     14111
     14108     14111     14112     14108     14111     14113     14108     14111     14114
     14112     14111     14113     14112     14111     14114     14113     14111     14114
     14111     14114     14115     14111     14114     14116     14111     14114     14117
     14115     14114     14116     14115     14114     14117     14116     14114     14117
     17918     17917     17919     17918     17917     17920     17918     17917     17921
     17919     17917     17920     17919     17917     17921     17920     17917     17921
     17917     17921     17922     17917     17921     17923     17917     17921     17924
     17922     17921     17923     17922     17921     17924     17923     17921     17924
     17921     17924     17925     17921     17924     17926     17921     17924     17930
     17925     17924     17926     17925     17924     17930     17926     17924     17930
     17928     17927     17929     17928     17927     17930     17928     17927     17931
     17929     17927     17930     17929     17927     17931     17930     17927     17931
     17924     17930     17927     17927     17931     17932     17931     17932     17933
     17931     17932     17934     17931     17932     17935     17933     17932     17934
     17933     17932     17935     17934     17932     17935     17932     17935     17936
     17932     17935     17937     17932     17935     17943     17936     17935     17937
     17936     17935     17943     17937     17935     17943     17935     17937     17938
     17937     17938     17939     17937     17938     17940     17939     17938     17940
     17938     17940     17941     17938     17940     17942     17938     17940     17952
     17941     17940     17942     17941     17940     17952     17942     17940     17952
     17935     17943     17944     17935     17943     17945     17935     17943     17946
     17944     17943     17945     17944     17943     17946     17945     17943     17946
     17943     17946     17947     17946     17947     17948     17946     17947     17949
     17948     17947     17949     17947     17949     17950     17947     17949     17951
     17947     17949     17999     17950     17949     17951     17950     17949     17999
     17951     17949     17999     17940     17952     17953     17940     17952     17954
     17940     17952     17955     17953     17952     17954     17953     17952     17955
     17954     17952     17955     17952     17955     17956     17952     17955     17957
     17952     17955     17958     17956     17955     17957     17956     17955     17958
     17957     17955     17958     17955     17958     17959     17955     17958     17960
     17959     17958     17960     17958     17960     17961     17958     17960     17962
     17961     17960     17962     17960     17962     17963     17960     17962     17964
     17960     17962     17965     17963     17962     17964     17963     17962     17965
     17964     17962     17965     17962     17965     17966     17962     17965     17967
     17966     17965     17967     17965     17967     17968     17965     17967     17969
     17968     17967     17969     17967     17969     17970     17967     17969     17971
     17967     17969     17972     17970     17969     17971     17970     17969     17972
     17971     17969     17972     17969     17972     17973     17969     17972     17974
     17973     17972     17974     17972     17974     17975     17972     17974     17976
     17975     17974     17976     17974     17976     17977     17974     17976     17978
     17974     17976     17979     17977     17976     17978     17977     17976     17979
     17978     17976     17979     17976     17979     17980     17976     17979     17981
     17980     17979     17981     17979     17981     17982     17979     17981     17983
     17982     17981     17983     17981     17983     17984     17981     17983     17985
     17981     17983     17986     17984     17983     17985     17984     17983     17986
     17985     17983     17986     17983     17986     17987     17983     17986     17988
     17983     17986     17989     17987     17986     17988     17987     17986     17989
     17988     17986     17989     17986     17989     17990     17986     17989     17991
     17986     17989     17992     17990     17989     17991     17990     17989     17992
     17991     17989     17992     17989     17992     17993     17989     17992     17994
     17989     17992     17995     17993     17992     17994     17993     17992     17995
     17994     17992     17995     17992     17995     17996     17992     17995     17997
     17992     17995     17998     17996     17995     17997     17996     17995     17998
     17997     17995     17998     17949     17999     18000     17949     17999     18001
     17949     17999     18002     18000     17999     18001     18000     17999     18002
     18001     17999     18002     17999     18002     18003     17999     18002     18004
     17999     18002     18005     18003     18002     18004     18003     18002     18005
     18004     18002     18005     18002     18005     18006     18002     18005     18007
     18002     18005     18008     18006     18005     18007     18006     18005     18008
     18007     18005     18008     18005     18008     18009     18005     18008     18010
     18005     18008     18011     18009     18008     18010     18009     18008     18011
     18010     18008     18011     18008     18011     18012     18008     18011     18013
     18008     18011     18014     18012     18011     18013     18012     18011     18014
     18013     18011     18014     18011     18014     18015     18011     18014     18016
     18011     18014     18017     18015     18014     18016     18015     18014     18017
     18016     18014     18017     18014     18017     18018     18014     18017     18019
     18014     18017     18020     18018     18017     18019     18018     18017     18020
     18019     18017     18020     18017     18020     18021     18017     18020     18022
     18017     18020     18023     18021     18020     18022     18021     18020     18023
     18022     18020     18023     18020     18023     18024     18020     18023     18025
     18020     18023     18026     18024     18023     18025     18024     18023     18026
     18025     18023     18026     18023     18026     18027     18023     18026     18028
     18023     18026     18029     18027     18026     18028     18027     18026     18029
     18028     18026     18029     18026     18029     18030     18026     18029     18031
     18026     18029     18032     18030     18029     18031     18030     18029     18032
     18031     18029     18032     18029     18032     18033     18029     18032     18034
     18029     18032     18035     18033     18032     18034     18033     18032     18035
     18034     18032     18035     18032     18035     18036     18032     18035     18037
     18032     18035     18038     18036     18035     18037     18036     18035     18038
     18037     18035     18038     18035     18038     18039     18035     18038     18040
     18035     18038     18041     18039     18038     18040     18039     18038     18041
     18040     18038     18041     18038     18041     18042     18038     18041     18043
     18038     18041     18044     18042     18041     18043     18042     18041     18044
     18043     18041     18044     18041     18044     18045     18041     18044     18046
     18041     18044     18047     18045     18044     18046     18045     18044     18047
     18046     18044     18047      5326      5325      5327      5326      5325      5329
      5326      5325      5371      5327      5325      5329      5327      5325      5371
      5329      5325      5371      5325      5327      5328      5325      5329      5330
      5325      5329      5331      5325      5329      5332      5330      5329      5331
      5330      5329      5332      5331      5329      5332      5329      5332      5333
      5329      5332      5363      5333      5332      5363      5332      5333      5334
      5332      5333      5335      5334      5333      5335      5333      5335      5336
      5333      5335      5337      5333      5335      5338      5336      5335      5337
      5336      5335      5338      5337      5335      5338      5335      5338      5339
      5335      5338      5340      5335      5338      5361      5339      5338      5340
      5339      5338      5361      5340      5338      5361      5338      5340      5341
      5338      5340      5342      5338      5340      5350      5341      5340      5342
      5341      5340      5350      5342      5340      5350      5340      5342      5343
      5340      5342      5344      5340      5342      5345      5343      5342      5344
      5343      5342      5345      5344      5342      5345      5342      5345      5346
      5342      5345      5347      5342      5345      5348      5346      5345      5347
      5346      5345      5348      5347      5345      5348      5345      5348      5349
      5345      5348      5350      5345      5348      5374      5349      5348      5350
      5349      5348      5374      5350      5348      5374      5340      5350      5348
      5340      5350      5351      5340      5350      5355      5348      5350      5351
      5348      5350      5355      5351      5350      5355      5350      5351      5352
      5350      5351      5353      5350      5351      5354      5352      5351      5353
      5352      5351      5354      5353      5351      5354      5350      5355      5356
      5350      5355      5357      5350      5355      5358      5356      5355      5357
      5356      5355      5358      5357      5355      5358      5355      5358      5359
      5355      5358      5360      5355      5358      5361      5359      5358      5360
      5359      5358      5361      5360      5358      5361      5338      5361      5358
      5338      5361      5362      5338      5361      5363      5358      5361      5362
      5358      5361      5363      5362      5361      5363      5332      5363      5361
      5332      5363      5364      5332      5363      5368      5361      5363      5364
      5361      5363      5368      5364      5363      5368      5363      5364      5365
      5363      5364      5366      5363      5364      5367      5365      5364      5366
      5365      5364      5367      5366      5364      5367      5363      5368      5369
      5363      5368      5370      5363      5368      5371      5369      5368      5370
      5369      5368      5371      5370      5368      5371      5325      5371      5368
      5325      5371      5372      5325      5371      5373      5368      5371      5372
      5368      5371      5373      5372      5371      5373      5348      5374      5375
      5348      5374      5376      5348      5374      5380      5375      5374      5376
      5375      5374      5380      5376      5374      5380      5374      5376      5377
      5374      5376      5378      5374      5376      5379      5377      5376      5378
      5377      5376      5379      5378      5376      5379      5374      5380      5381
      5374      5380      5382      5374      5380      5383      5381      5380      5382
      5381      5380      5383      5382      5380      5383      5380      5383      5384
      5380      5383      5385      5380      5383      5386      5384      5383      5385
      5384      5383      5386      5385      5383      5386      5383      5386      5387
      5383      5386      5388      5383      5386      5389      5387      5386      5388
      5387      5386      5389      5388      5386      5389      5386      5389      5390
      5386      5389      5391      5386      5389      5395      5390      5389      5391
      5390      5389      5395      5391      5389      5395      5389      5391      5392
      5389      5391      5393      5389      5391      5394      5392      5391      5393
      5392      5391      5394      5393      5391      5394      5389      5395      5396
      5389      5395      5397      5389      5395      5398      5396      5395      5397
      5396      5395      5398      5397      5395      5398     14119     14118     14123
     14119     14118     14127     14119     14118     14131     14123     14118     14127
     14123     14118     14131     14127     14118     14131     14118     14119     14120
     14118     14119     14121     14118     14119     14122     14120     14119     14121
     14120     14119     14122     14121     14119     14122     14118     14123     14124
     14118     14123     14125     14118     14123     14126     14124     14123     14125
     14124     14123     14126     14125     14123     14126     14118     14127     14128
     14118     14127     14129     14118     14127     14130     14128     14127     14129
     14128     14127     14130     14129     14127     14130     14118     14131     14132
     14118     14131     14133     14118     14131     14134     14132     14131     14133
     14132     14131     14134     14133     14131     14134     14131     14134     14135
     14131     14134     14136     14131     14134     14141     14135     14134     14136
     14135     14134     14141     14136     14134     14141     14138     14137     14139
     14138     14137     14140     14138     14137     14141     14139     14137     14140
     14139     14137     14141     14140     14137     14141     14137     14140     14142
     14134     14141     14137     14140     14142     14143     14140     14142     14144
     14140     14142     14147     14143     14142     14144     14143     14142     14147
     14144     14142     14147     14146     14145     14147     14146     14145     14197
     14147     14145     14197     14142     14147     14145     14142     14147     14148
     14142     14147     14149     14145     14147     14148     14145     14147     14149
     14148     14147     14149     14147     14149     14150     14147     14149     14151
     14147     14149     14153     14150     14149     14151     14150     14149     14153
     14151     14149     14153     14149     14151     14152     14149     14153     14154
     14149     14153     14155     14154     14153     14155     14153     14155     14156
     14153     14155     14157     14156     14155     14157     14155     14157     14158
     14155     14157     14159     14155     14157     14160     14158     14157     14159
     14158     14157     14160     14159     14157     14160     14157     14160     14161
     14157     14160     14162     14157     14160     14163     14161     14160     14162
     14161     14160     14163     14162     14160     14163     14160     14163     14164
     14160     14163     14165     14160     14163     14166     14164     14163     14165
     14164     14163     14166     14165     14163     14166     14163     14166     14167
     14163     14166     14168     14163     14166     14169     14167     14166     14168
     14167     14166     14169     14168     14166     14169     14166     14169     14170
     14166     14169     14171     14166     14169     14172     14170     14169     14171
     14170     14169     14172     14171     14169     14172     14169     14172     14173
     14169     14172     14174     14169     14172     14175     14173     14172     14174
     14173     14172     14175     14174     14172     14175     14172     14175     14176
     14172     14175     14177     14172     14175     14178     14176     14175     14177
     14176     14175     14178     14177     14175     14178     14175     14178     14179
     14175     14178     14180     14175     14178     14181     14179     14178     14180
     14179     14178     14181     14180     14178     14181     14178     14181     14182
     14178     14181     14183     14178     14181     14184     14182     14181     14183
     14182     14181     14184     14183     14181     14184     14181     14184     14185
     14181     14184     14186     14181     14184     14187     14185     14184     14186
     14185     14184     14187     14186     14184     14187     14184     14187     14188
     14184     14187     14189     14184     14187     14190     14188     14187     14189
     14188     14187     14190     14189     14187     14190     14187     14190     14191
     14187     14190     14192     14187     14190     14193     14191     14190     14192
     14191     14190     14193     14192     14190     14193     14190     14193     14194
     14190     14193     14195     14190     14193     14196     14194     14193     14195
     14194     14193     14196     14195     14193     14196     14145     14197     14198
     14145     14197     14199     14198     14197     14199     14197     14199     14200
     14197     14199     14201     14197     14199     14202     14200     14199     14201
     14200     14199     14202     14201     14199     14202     14199     14202     14203
     14199     14202     14204     14199     14202     14205     14203     14202     14204
     14203     14202     14205     14204     14202     14205     14202     14205     14206
     14202     14205     14207     14202     14205     14208     14206     14205     14207
     14206     14205     14208     14207     14205     14208     14205     14208     14209
     14205     14208     14210     14205     14208     14211     14209     14208     14210
     14209     14208     14211     14210     14208     14211     14208     14211     14212
     14208     14211     14213     14208     14211     14214     14212     14211     14213
     14212     14211     14214     14213     14211     14214     14211     14214     14215
     14211     14214     14216     14211     14214     14217     14215     14214     14216
     14215     14214     14217     14216     14214     14217     14214     14217     14218
     14214     14217     14219     14214     14217     14220     14218     14217     14219
     14218     14217     14220     14219     14217     14220     14217     14220     14221
     14217     14220     14222     14221     14220     14222     14220     14222     14223
     14220     14222     14224     14223     14222     14224     14222     14224     14225
     14222     14224     14226     14222     14224     14227     14225     14224     14226
     14225     14224     14227     14226     14224     14227     14224     14227     14228
     14224     14227     14229     14224     14227     14230     14228     14227     14229
     14228     14227     14230     14229     14227     14230     14227     14230     14231
     14227     14230     14232     14227     14230     14233     14231     14230     14232
     14231     14230     14233     14232     14230     14233     14230     14233     14234
     14230     14233     14235     14230     14233     14236     14234     14233     14235
     14234     14233     14236     14235     14233     14236     14233     14236     14237
     14233     14236     14238     14233     14236     14239     14237     14236     14238
     14237     14236     14239     14238     14236     14239     14236     14239     14240
     14236     14239     14241     14236     14239     14242     14240     14239     14241
     14240     14239     14242     14241     14239     14242     14239     14242     14243
     14239     14242     14244     14239     14242     14245     14243     14242     14244
     14243     14242     14245     14244     14242     14245     14242     14245     14246
     14242     14245     14247     14242     14245     14248     14246     14245     14247
     14246     14245     14248     14247     14245     14248     14250     14249     14254
     14250     14249     14258     14250     14249     14262     14254     14249     14258
     14254     14249     14262     14258     14249     14262     14249     14250     14251
     14249     14250     14252     14249     14250     14253     14251     14250     14252
     14251     14250     14253     14252     14250     14253     14249     14254     14255
     14249     14254     14256     14249     14254     14257     14255     14254     14256
     14255     14254     14257     14256     14254     14257     14249     14258     14259
     14249     14258     14260     14249     14258     14261     14259     14258     14260
     14259     14258     14261     14260     14258     14261     14249     14262     14263
     14249     14262     14264     14249     14262     14265     14263     14262     14264
     14263     14262     14265     14264     14262     14265     14262     14265     14266
     14262     14265     14267     14262     14265     14272     14266     14265     14267
     14266     14265     14272     14267     14265     14272     14269     14268     14270
     14269     14268     14271     14269     14268     14272     14270     14268     14271
     14270     14268     14272     14271     14268     14272     14268     14271     14273
     14265     14272     14268     14271     14273     14274     14271     14273     14275
     14271     14273     14278     14274     14273     14275     14274     14273     14278
     14275     14273     14278     14277     14276     14278     14277     14276     14328
     14278     14276     14328     14273     14278     14276     14273     14278     14279
     14273     14278     14280     14276     14278     14279     14276     14278     14280
     14279     14278     14280     14278     14280     14281     14278     14280     14282
     14278     14280     14284     14281     14280     14282     14281     14280     14284
     14282     14280     14284     14280     14282     14283     14280     14284     14285
     14280     14284     14286     14285     14284     14286     14284     14286     14287
     14284     14286     14288     14287     14286     14288     14286     14288     14289
     14286     14288     14290     14286     14288     14291     14289     14288     14290
     14289     14288     14291     14290     14288     14291     14288     14291     14292
     14288     14291     14293     14288     14291     14294     14292     14291     14293
     14292     14291     14294     14293     14291     14294     14291     14294     14295
     14291     14294     14296     14291     14294     14297     14295     14294     14296
     14295     14294     14297     14296     14294     14297     14294     14297     14298
     14294     14297     14299     14294     14297     14300     14298     14297     14299
     14298     14297     14300     14299     14297     14300     14297     14300     14301
     14297     14300     14302     14297     14300     14303     14301     14300     14302
     14301     14300     14303     14302     14300     14303     14300     14303     14304
     14300     14303     14305     14300     14303     14306     14304     14303     14305
     14304     14303     14306     14305     14303     14306     14303     14306     14307
     14303     14306     14308     14303     14306     14309     14307     14306     14308
     14307     14306     14309     14308     14306     14309     14306     14309     14310
     14306     14309     14311     14306     14309     14312     14310     14309     14311
     14310     14309     14312     14311     14309     14312     14309     14312     14313
     14309     14312     14314     14309     14312     14315     14313     14312     14314
     14313     14312     14315     14314     14312     14315     14312     14315     14316
     14312     14315     14317     14312     14315     14318     14316     14315     14317
     14316     14315     14318     14317     14315     14318     14315     14318     14319
     14315     14318     14320     14315     14318     14321     14319     14318     14320
     14319     14318     14321     14320     14318     14321     14318     14321     14322
     14318     14321     14323     14318     14321     14324     14322     14321     14323
     14322     14321     14324     14323     14321     14324     14321     14324     14325
     14321     14324     14326     14321     14324     14327     14325     14324     14326
     14325     14324     14327     14326     14324     14327     14276     14328     14329
     14276     14328     14330     14329     14328     14330     14328     14330     14331
     14328     14330     14332     14328     14330     14333     14331     14330     14332
     14331     14330     14333     14332     14330     14333     14330     14333     14334
     14330     14333     14335     14330     14333     14336     14334     14333     14335
     14334     14333     14336     14335     14333     14336     14333     14336     14337
     14333     14336     14338     14333     14336     14339     14337     14336     14338
     14337     14336     14339     14338     14336     14339     14336     14339     14340
     14336     14339     14341     14336     14339     14342     14340     14339     14341
     14340     14339     14342     14341     14339     14342     14339     14342     14343
     14339     14342     14344     14339     14342     14345     14343     14342     14344
     14343     14342     14345     14344     14342     14345     14342     14345     14346
     14342     14345     14347     14342     14345     14348     14346     14345     14347
     14346     14345     14348     14347     14345     14348     14345     14348     14349
     14345     14348     14350     14345     14348     14351     14349     14348     14350
     14349     14348     14351     14350     14348     14351     14348     14351     14352
     14348     14351     14353     14352     14351     14353     14351     14353     14354
     14351     14353     14355     14354     14353     14355     14353     14355     14356
     14353     14355     14357     14353     14355     14358     14356     14355     14357
     14356     14355     14358     14357     14355     14358     14355     14358     14359
     14355     14358     14360     14355     14358     14361     14359     14358     14360
     14359     14358     14361     14360     14358     14361     14358     14361     14362
     14358     14361     14363     14358     14361     14364     14362     14361     14363
     14362     14361     14364     14363     14361     14364     14361     14364     14365
     14361     14364     14366     14361     14364     14367     14365     14364     14366
     14365     14364     14367     14366     14364     14367     14364     14367     14368
     14364     14367     14369     14364     14367     14370     14368     14367     14369
     14368     14367     14370     14369     14367     14370     14367     14370     14371
     14367     14370     14372     14367     14370     14373     14371     14370     14372
     14371     14370     14373     14372     14370     14373     14370     14373     14374
     14370     14373     14375     14370     14373     14376     14374     14373     14375
     14374     14373     14376     14375     14373     14376     14373     14376     14377
     14373     14376     14378     14373     14376     14379     14377     14376     14378
     14377     14376     14379     14378     14376     14379     20594     20593     20598
     20594     20593     20602     20594     20593     20606     20598     20593     20602
     20598     20593     20606     20602     20593     20606     20593     20594     20595
     20593     20594     20596     20593     20594     20597     20595     20594     20596
     20595     20594     20597     20596     20594     20597     20593     20598     20599
     20593     20598     20600     20593     20598     20601     20599     20598     20600
     20599     20598     20601     20600     20598     20601     20593     20602     20603
     20593     20602     20604     20593     20602     20605     20603     20602     20604
     20603     20602     20605     20604     20602     20605     20593     20606     20607
     20593     20606     20608     20593     20606     20609     20607     20606     20608
     20607     20606     20609     20608     20606     20609     20606     20609     20610
     20606     20609     20611     20606     20609     20615     20610     20609     20611
     20610     20609     20615     20611     20609     20615     20613     20612     20614
     20613     20612     20615     20613     20612     20616     20614     20612     20615
     20614     20612     20616     20615     20612     20616     20609     20615     20612
     20612     20616     20617     20616     20617     20618     20616     20617     20619
     20616     20617     20620     20618     20617     20619     20618     20617     20620
     20619     20617     20620     20617     20620     20621     20617     20620     20622
     20617     20620     20628     20621     20620     20622     20621     20620     20628
     20622     20620     20628     20620     20622     20623     20622     20623     20624
     20622     20623     20625     20624     20623     20625     20623     20625     20626
     20623     20625     20627     20623     20625     20637     20626     20625     20627
     20626     20625     20637     20627     20625     20637     20620     20628     20629
     20620     20628     20630     20620     20628     20631     20629     20628     20630
     20629     20628     20631     20630     20628     20631     20628     20631     20632
     20631     20632     20633     20631     20632     20634     20633     20632     20634
     20632     20634     20635     20632     20634     20636     20632     20634     20682
     20635     20634     20636     20635     20634     20682     20636     20634     20682
     20625     20637     20638     20625     20637     20639     20625     20637     20640
     20638     20637     20639     20638     20637     20640     20639     20637     20640
     20637     20640     20641     20637     20640     20642     20637     20640     20643
     20641     20640     20642     20641     20640     20643     20642     20640     20643
     20640     20643     20644     20640     20643     20645     20640     20643     20646
     20644     20643     20645     20644     20643     20646     20645     20643     20646
     20643     20646     20647     20643     20646     20648     20643     20646     20649
     20647     20646     20648     20647     20646     20649     20648     20646     20649
     20646     20649     20650     20646     20649     20651     20646     20649     20652
     20650     20649     20651     20650     20649     20652     20651     20649     20652
     20649     20652     20653     20649     20652     20654     20649     20652     20655
     20653     20652     20654     20653     20652     20655     20654     20652     20655
     20652     20655     20656     20652     20655     20657     20656     20655     20657
     20655     20657     20658     20655     20657     20659     20658     20657     20659
     20657     20659     20660     20657     20659     20661     20657     20659     20662
     20660     20659     20661     20660     20659     20662     20661     20659     20662
     20659     20662     20663     20659     20662     20664     20663     20662     20664
     20662     20664     20665     20662     20664     20666     20665     20664     20666
     20664     20666     20667     20664     20666     20668     20664     20666     20669
     20667     20666     20668     20667     20666     20669     20668     20666     20669
     20666     20669     20670     20666     20669     20671     20666     20669     20672
     20670     20669     20671     20670     20669     20672     20671     20669     20672
     20669     20672     20673     20669     20672     20674     20669     20672     20675
     20673     20672     20674     20673     20672     20675     20674     20672     20675
     20672     20675     20676     20672     20675     20677     20672     20675     20678
     20676     20675     20677     20676     20675     20678     20677     20675     20678
     20675     20678     20679     20675     20678     20680     20675     20678     20681
     20679     20678     20680     20679     20678     20681     20680     20678     20681
     20634     20682     20683     20634     20682     20684     20634     20682     20685
     20683     20682     20684     20683     20682     20685     20684     20682     20685
     20682     20685     20686     20682     20685     20687     20682     20685     20688
     20686     20685     20687     20686     20685     20688     20687     20685     20688
     20685     20688     20689     20685     20688     20690     20685     20688     20691
     20689     20688     20690     20689     20688     20691     20690     20688     20691
     20688     20691     20692     20688     20691     20693     20688     20691     20694
     20692     20691     20693     20692     20691     20694     20693     20691     20694
     20691     20694     20695     20691     20694     20696     20691     20694     20697
     20695     20694     20696     20695     20694     20697     20696     20694     20697
     20694     20697     20698     20694     20697     20699     20694     20697     20700
     20698     20697     20699     20698     20697     20700     20699     20697     20700
     20697     20700     20701     20697     20700     20702     20697     20700     20703
     20701     20700     20702     20701     20700     20703     20702     20700     20703
     20700     20703     20704     20700     20703     20705     20700     20703     20706
     20704     20703     20705     20704     20703     20706     20705     20703     20706
     20703     20706     20707     20703     20706     20708     20703     20706     20709
     20707     20706     20708     20707     20706     20709     20708     20706     20709
     20706     20709     20710     20706     20709     20711     20706     20709     20712
     20710     20709     20711     20710     20709     20712     20711     20709     20712
     20709     20712     20713     20709     20712     20714     20709     20712     20715
     20713     20712     20714     20713     20712     20715     20714     20712     20715
     20712     20715     20716     20712     20715     20717     20712     20715     20718
     20716     20715     20717     20716     20715     20718     20717     20715     20718
     20715     20718     20719     20715     20718     20720     20715     20718     20721
     20719     20718     20720     20719     20718     20721     20720     20718     20721
     20718     20721     20722     20718     20721     20723     20718     20721     20724
     20722     20721     20723     20722     20721     20724     20723     20721     20724
     20721     20724     20725     20721     20724     20726     20721     20724     20727
     20725     20724     20726     20725     20724     20727     20726     20724     20727
     20724     20727     20728     20724     20727     20729     20724     20727     20730
     20728     20727     20729     20728     20727     20730     20729     20727     20730
     14381     14380     14385     14381     14380     14389     14381     14380     14393
     14385     14380     14389     14385     14380     14393     14389     14380     14393
     14380     14381     14382     14380     14381     14383     14380     14381     14384
     14382     14381     14383     14382     14381     14384     14383     14381     14384
     14380     14385     14386     14380     14385     14387     14380     14385     14388
     14386     14385     14387     14386     14385     14388     14387     14385     14388
     14380     14389     14390     14380     14389     14391     14380     14389     14392
     14390     14389     14391     14390     14389     14392     14391     14389     14392
     14380     14393     14394     14380     14393     14395     14380     14393     14396
     14394     14393     14395     14394     14393     14396     14395     14393     14396
     14393     14396     14397     14393     14396     14398     14393     14396     14403
     14397     14396     14398     14397     14396     14403     14398     14396     14403
     14400     14399     14401     14400     14399     14402     14400     14399     14403
     14401     14399     14402     14401     14399     14403     14402     14399     14403
     14399     14402     14404     14396     14403     14399     14402     14404     14405
     14402     14404     14406     14402     14404     14409     14405     14404     14406
     14405     14404     14409     14406     14404     14409     14408     14407     14409
     14408     14407     14459     14409     14407     14459     14404     14409     14407
     14404     14409     14410     14404     14409     14411     14407     14409     14410
     14407     14409     14411     14410     14409     14411     14409     14411     14412
     14409     14411     14413     14409     14411     14415     14412     14411     14413
     14412     14411     14415     14413     14411     14415     14411     14413     14414
     14411     14415     14416     14411     14415     14417     14416     14415     14417
     14415     14417     14418     14415     14417     14419     14418     14417     14419
     14417     14419     14420     14417     14419     14421     14417     14419     14422
     14420     14419     14421     14420     14419     14422     14421     14419     14422
     14419     14422     14423     14419     14422     14424     14419     14422     14425
     14423     14422     14424     14423     14422     14425     14424     14422     14425
     14422     14425     14426     14422     14425     14427     14422     14425     14428
     14426     14425     14427     14426     14425     14428     14427     14425     14428
     14425     14428     14429     14425     14428     14430     14425     14428     14431
     14429     14428     14430     14429     14428     14431     14430     14428     14431
     14428     14431     14432     14428     14431     14433     14428     14431     14434
     14432     14431     14433     14432     14431     14434     14433     14431     14434
     14431     14434     14435     14431     14434     14436     14431     14434     14437
     14435     14434     14436     14435     14434     14437     14436     14434     14437
     14434     14437     14438     14434     14437     14439     14434     14437     14440
     14438     14437     14439     14438     14437     14440     14439     14437     14440
     14437     14440     14441     14437     14440     14442     14437     14440     14443
     14441     14440     14442     14441     14440     14443     14442     14440     14443
     14440     14443     14444     14440     14443     14445     14440     14443     14446
     14444     14443     14445     14444     14443     14446     14445     14443     14446
     14443     14446     14447     14443     14446     14448     14443     14446     14449
     14447     14446     14448     14447     14446     14449     14448     14446     14449
     14446     14449     14450     14446     14449     14451     14446     14449     14452
     14450     14449     14451     14450     14449     14452     14451     14449     14452
     14449     14452     14453     14449     14452     14454     14449     14452     14455
     14453     14452     14454     14453     14452     14455     14454     14452     14455
     14452     14455     14456     14452     14455     14457     14452     14455     14458
     14456     14455     14457     14456     14455     14458     14457     14455     14458
     14407     14459     14460     14407     14459     14461     14460     14459     14461
     14459     14461     14462     14459     14461     14463     14459     14461     14464
     14462     14461     14463     14462     14461     14464     14463     14461     14464
     14461     14464     14465     14461     14464     14466     14461     14464     14467
     14465     14464     14466     14465     14464     14467     14466     14464     14467
     14464     14467     14468     14464     14467     14469     14464     14467     14470
     14468     14467     14469     14468     14467     14470     14469     14467     14470
     14467     14470     14471     14467     14470     14472     14467     14470     14473
     14471     14470     14472     14471     14470     14473     14472     14470     14473
     14470     14473     14474     14470     14473     14475     14470     14473     14476
     14474     14473     14475     14474     14473     14476     14475     14473     14476
     14473     14476     14477     14473     14476     14478     14473     14476     14479
     14477     14476     14478     14477     14476     14479     14478     14476     14479
     14476     14479     14480     14476     14479     14481     14476     14479     14482
     14480     14479     14481     14480     14479     14482     14481     14479     14482
     14479     14482     14483     14479     14482     14484     14483     14482     14484
     14482     14484     14485     14482     14484     14486     14485     14484     14486
     14484     14486     14487     14484     14486     14488     14484     14486     14489
     14487     14486     14488     14487     14486     14489     14488     14486     14489
     14486     14489     14490     14486     14489     14491     14486     14489     14492
     14490     14489     14491     14490     14489     14492     14491     14489     14492
     14489     14492     14493     14489     14492     14494     14489     14492     14495
     14493     14492     14494     14493     14492     14495     14494     14492     14495
     14492     14495     14496     14492     14495     14497     14492     14495     14498
     14496     14495     14497     14496     14495     14498     14497     14495     14498
     14495     14498     14499     14495     14498     14500     14495     14498     14501
     14499     14498     14500     14499     14498     14501     14500     14498     14501
     14498     14501     14502     14498     14501     14503     14498     14501     14504
     14502     14501     14503     14502     14501     14504     14503     14501     14504
     14501     14504     14505     14501     14504     14506     14501     14504     14507
     14505     14504     14506     14505     14504     14507     14506     14504     14507
     14504     14507     14508     14504     14507     14509     14504     14507     14510
     14508     14507     14509     14508     14507     14510     14509     14507     14510
     14512     14511     14516     14512     14511     14520     14512     14511     14524
     14516     14511     14520     14516     14511     14524     14520     14511     14524
     14511     14512     14513     14511     14512     14514     14511     14512     14515
     14513     14512     14514     14513     14512     14515     14514     14512     14515
     14511     14516     14517     14511     14516     14518     14511     14516     14519
     14517     14516     14518     14517     14516     14519     14518     14516     14519
     14511     14520     14521     14511     14520     14522     14511     14520     14523
     14521     14520     14522     14521     14520     14523     14522     14520     14523
     14511     14524     14525     14511     14524     14526     14511     14524     14527
     14525     14524     14526     14525     14524     14527     14526     14524     14527
     14524     14527     14528     14524     14527     14529     14524     14527     14534
     14528     14527     14529     14528     14527     14534     14529     14527     14534
     14531     14530     14532     14531     14530     14533     14531     14530     14534
     14532     14530     14533     14532     14530     14534     14533     14530     14534
     14530     14533     14535     14527     14534     14530     14533     14535     14536
     14533     14535     14537     14533     14535     14540     14536     14535     14537
     14536     14535     14540     14537     14535     14540     14539     14538     14540
     14539     14538     14590     14540     14538     14590     14535     14540     14538
     14535     14540     14541     14535     14540     14542     14538     14540     14541
     14538     14540     14542     14541     14540     14542     14540     14542     14543
     14540     14542     14544     14540     14542     14546     14543     14542     14544
     14543     14542     14546     14544     14542     14546     14542     14544     14545
     14542     14546     14547     14542     14546     14548     14547     14546     14548
     14546     14548     14549     14546     14548     14550     14549     14548     14550
     14548     14550     14551     14548     14550     14552     14548     14550     14553
     14551     14550     14552     14551     14550     14553     14552     14550     14553
     14550     14553     14554     14550     14553     14555     14550     14553     14556
     14554     14553     14555     14554     14553     14556     14555     14553     14556
     14553     14556     14557     14553     14556     14558     14553     14556     14559
     14557     14556     14558     14557     14556     14559     14558     14556     14559
     14556     14559     14560     14556     14559     14561     14556     14559     14562
     14560     14559     14561     14560     14559     14562     14561     14559     14562
     14559     14562     14563     14559     14562     14564     14559     14562     14565
     14563     14562     14564     14563     14562     14565     14564     14562     14565
     14562     14565     14566     14562     14565     14567     14562     14565     14568
     14566     14565     14567     14566     14565     14568     14567     14565     14568
     14565     14568     14569     14565     14568     14570     14565     14568     14571
     14569     14568     14570     14569     14568     14571     14570     14568     14571
     14568     14571     14572     14568     14571     14573     14568     14571     14574
     14572     14571     14573     14572     14571     14574     14573     14571     14574
     14571     14574     14575     14571     14574     14576     14571     14574     14577
     14575     14574     14576     14575     14574     14577     14576     14574     14577
     14574     14577     14578     14574     14577     14579     14574     14577     14580
     14578     14577     14579     14578     14577     14580     14579     14577     14580
     14577     14580     14581     14577     14580     14582     14577     14580     14583
     14581     14580     14582     14581     14580     14583     14582     14580     14583
     14580     14583     14584     14580     14583     14585     14580     14583     14586
     14584     14583     14585     14584     14583     14586     14585     14583     14586
     14583     14586     14587     14583     14586     14588     14583     14586     14589
     14587     14586     14588     14587     14586     14589     14588     14586     14589
     14538     14590     14591     14538     14590     14592     14591     14590     14592
     14590     14592     14593     14590     14592     14594     14590     14592     14595
     14593     14592     14594     14593     14592     14595     14594     14592     14595
     14592     14595     14596     14592     14595     14597     14592     14595     14598
     14596     14595     14597     14596     14595     14598     14597     14595     14598
     14595     14598     14599     14595     14598     14600     14595     14598     14601
     14599     14598     14600     14599     14598     14601     14600     14598     14601
     14598     14601     14602     14598     14601     14603     14598     14601     14604
     14602     14601     14603     14602     14601     14604     14603     14601     14604
     14601     14604     14605     14601     14604     14606     14601     14604     14607
     14605     14604     14606     14605     14604     14607     14606     14604     14607
     14604     14607     14608     14604     14607     14609     14604     14607     14610
     14608     14607     14609     14608     14607     14610     14609     14607     14610
     14607     14610     14611     14607     14610     14612     14607     14610     14613
     14611     14610     14612     14611     14610     14613     14612     14610     14613
     14610     14613     14614     14610     14613     14615     14614     14613     14615
     14613     14615     14616     14613     14615     14617     14616     14615     14617
     14615     14617     14618     14615     14617     14619     14615     14617     14620
     14618     14617     14619     14618     14617     14620     14619     14617     14620
     14617     14620     14621     14617     14620     14622     14617     14620     14623
     14621     14620     14622     14621     14620     14623     14622     14620     14623
     14620     14623     14624     14620     14623     14625     14620     14623     14626
     14624     14623     14625     14624     14623     14626     14625     14623     14626
     14623     14626     14627     14623     14626     14628     14623     14626     14629
     14627     14626     14628     14627     14626     14629     14628     14626     14629
     14626     14629     14630     14626     14629     14631     14626     14629     14632
     14630     14629     14631     14630     14629     14632     14631     14629     14632
     14629     14632     14633     14629     14632     14634     14629     14632     14635
     14633     14632     14634     14633     14632     14635     14634     14632     14635
     14632     14635     14636     14632     14635     14637     14632     14635     14638
     14636     14635     14637     14636     14635     14638     14637     14635     14638
     14635     14638     14639     14635     14638     14640     14635     14638     14641
     14639     14638     14640     14639     14638     14641     14640     14638     14641
      2130      2129      2131      2130      2129      2132      2130      2129      2133
      2131      2129      2132      2131      2129      2133      2132      2129      2133
      2129      2133      2134      2129      2133      2135      2129      2133      2138
      2134      2133      2135      2134      2133      2138      2135      2133      2138
      2133      2135      2136      2133      2135      2137      2136      2135      2137
      2133      2138      2139      2133      2138      2140      2133      2138      2144
      2139      2138      2140      2139      2138      2144      2140      2138      2144
      2142      2141      2143      2142      2141      2144      2142      2141      2145
      2143      2141      2144      2143      2141      2145      2144      2141      2145
      2138      2144      2141      2141      2145      2146      2145      2146      2147
      2145      2146      2148      2145      2146      2149      2147      2146      2148
      2147      2146      2149      2148      2146      2149      2146      2149      2150
      2146      2149      2151      2146      2149      2157      2150      2149      2151
      2150      2149      2157      2151      2149      2157      2149      2151      2152
      2151      2152      2153      2151      2152      2154      2153      2152      2154
      2152      2154      2155      2152      2154      2156      2152      2154      2166
      2155      2154      2156      2155      2154      2166      2156      2154      2166
      2149      2157      2158      2149      2157      2159      2149      2157      2160
      2158      2157      2159      2158      2157      2160      2159      2157      2160
      2157      2160      2161      2160      2161      2162      2160      2161      2163
      2162      2161      2163      2161      2163      2164      2161      2163      2165
      2161      2163      2213      2164      2163      2165      2164      2163      2213
      2165      2163      2213      2154      2166      2167      2154      2166      2168
      2154      2166      2169      2167      2166      2168      2167      2166      2169
      2168      2166      2169      2166      2169      2170      2166      2169      2171
      2166      2169      2172      2170      2169      2171      2170      2169      2172
      2171      2169      2172      2169      2172      2173      2169      2172      2174
      2173      2172      2174      2172      2174      2175      2172      2174      2176
      2175      2174      2176      2174      2176      2177      2174      2176      2178
      2174      2176      2179      2177      2176      2178      2177      2176      2179
      2178      2176      2179      2176      2179      2180      2176      2179      2181
      2180      2179      2181      2179      2181      2182      2179      2181      2183
      2182      2181      2183      2181      2183      2184      2181      2183      2185
      2181      2183      2186      2184      2183      2185      2184      2183      2186
      2185      2183      2186      2183      2186      2187      2183      2186      2188
      2187      2186      2188      2186      2188      2189      2186      2188      2190
      2189      2188      2190      2188      2190      2191      2188      2190      2192
      2188      2190      2193      2191      2190      2192      2191      2190      2193
      2192      2190      2193      2190      2193      2194      2190      2193      2195
      2194      2193      2195      2193      2195      2196      2193      2195      2197
      2196      2195      2197      2195      2197      2198      2195      2197      2199
      2195      2197      2200      2198      2197      2199      2198      2197      2200
      2199      2197      2200      2197      2200      2201      2197      2200      2202
      2197      2200      2203      2201      2200      2202      2201      2200      2203
      2202      2200      2203      2200      2203      2204      2200      2203      2205
      2200      2203      2206      2204      2203      2205      2204      2203      2206
      2205      2203      2206      2203      2206      2207      2203      2206      2208
      2203      2206      2209      2207      2206      2208      2207      2206      2209
      2208      2206      2209      2206      2209      2210      2206      2209      2211
      2206      2209      2212      2210      2209      2211      2210      2209      2212
      2211      2209      2212      2163      2213      2214      2163      2213      2215
      2163      2213      2216      2214      2213      2215      2214      2213      2216
      2215      2213      2216      2213      2216      2217      2213      2216      2218
      2213      2216      2219      2217      2216      2218      2217      2216      2219
      2218      2216      2219      2216      2219      2220      2216      2219      2221
      2216      2219      2222      2220      2219      2221      2220      2219      2222
      2221      2219      2222      2219      2222      2223      2219      2222      2224
      2219      2222      2225      2223      2222      2224      2223      2222      2225
      2224      2222      2225      2222      2225      2226      2222      2225      2227
      2222      2225      2228      2226      2225      2227      2226      2225      2228
      2227      2225      2228      2225      2228      2229      2225      2228      2230
      2225      2228      2231      2229      2228      2230      2229      2228      2231
      2230      2228      2231      2228      2231      2232      2228      2231      2233
      2228      2231      2234      2232      2231      2233      2232      2231      2234
      2233      2231      2234      2231      2234      2235      2231      2234      2236
      2231      2234      2237      2235      2234      2236      2235      2234      2237
      2236      2234      2237      2234      2237      2238      2234      2237      2239
      2234      2237      2240      2238      2237      2239      2238      2237      2240
      2239      2237      2240      2237      2240      2241      2237      2240      2242
      2237      2240      2243      2241      2240      2242      2241      2240      2243
      2242      2240      2243      2240      2243      2244      2240      2243      2245
      2240      2243      2246      2244      2243      2245      2244      2243      2246
      2245      2243      2246      2243      2246      2247      2243      2246      2248
      2243      2246      2249      2247      2246      2248      2247      2246      2249
      2248      2246      2249      2246      2249      2250      2246      2249      2251
      2246      2249      2252      2250      2249      2251      2250      2249      2252
      2251      2249      2252      2249      2252      2253      2249      2252      2254
      2249      2252      2255      2253      2252      2254      2253      2252      2255
      2254      2252      2255      2252      2255      2256      2252      2255      2257
      2252      2255      2258      2256      2255      2257      2256      2255      2258
      2257      2255      2258      2255      2258      2259      2255      2258      2260
      2255      2258      2261      2259      2258      2260      2259      2258      2261
      2260      2258      2261      5400      5399      5401      5400      5399      5403
      5400      5399      5445      5401      5399      5403      5401      5399      5445
      5403      5399      5445      5399      5401      5402      5399      5403      5404
      5399      5403      5405      5399      5403      5406      5404      5403      5405
      5404      5403      5406      5405      5403      5406      5403      5406      5407
      5403      5406      5437      5407      5406      5437      5406      5407      5408
      5406      5407      5409      5408      5407      5409      5407      5409      5410
      5407      5409      5411      5407      5409      5412      5410      5409      5411
      5410      5409      5412      5411      5409      5412      5409      5412      5413
      5409      5412      5414      5409      5412      5435      5413      5412      5414
      5413      5412      5435      5414      5412      5435      5412      5414      5415
      5412      5414      5416      5412      5414      5424      5415      5414      5416
      5415      5414      5424      5416      5414      5424      5414      5416      5417
      5414      5416      5418      5414      5416      5419      5417      5416      5418
      5417      5416      5419      5418      5416      5419      5416      5419      5420
      5416      5419      5421      5416      5419      5422      5420      5419      5421
      5420      5419      5422      5421      5419      5422      5419      5422      5423
      5419      5422      5424      5419      5422      5448      5423      5422      5424
      5423      5422      5448      5424      5422      5448      5414      5424      5422
      5414      5424      5425      5414      5424      5429      5422      5424      5425
      5422      5424      5429      5425      5424      5429      5424      5425      5426
      5424      5425      5427      5424      5425      5428      5426      5425      5427
      5426      5425      5428      5427      5425      5428      5424      5429      5430
      5424      5429      5431      5424      5429      5432      5430      5429      5431
      5430      5429      5432      5431      5429      5432      5429      5432      5433
      5429      5432      5434      5429      5432      5435      5433      5432      5434
      5433      5432      5435      5434      5432      5435      5412      5435      5432
      5412      5435      5436      5412      5435      5437      5432      5435      5436
      5432      5435      5437      5436      5435      5437      5406      5437      5435
      5406      5437      5438      5406      5437      5442      5435      5437      5438
      5435      5437      5442      5438      5437      5442      5437      5438      5439
      5437      5438      5440      5437      5438      5441      5439      5438      5440
      5439      5438      5441      5440      5438      5441      5437      5442      5443
      5437      5442      5444      5437      5442      5445      5443      5442      5444
      5443      5442      5445      5444      5442      5445      5399      5445      5442
      5399      5445      5446      5399      5445      5447      5442      5445      5446
      5442      5445      5447      5446      5445      5447      5422      5448      5449
      5422      5448      5450      5422      5448      5454      5449      5448      5450
      5449      5448      5454      5450      5448      5454      5448      5450      5451
      5448      5450      5452      5448      5450      5453      5451      5450      5452
      5451      5450      5453      5452      5450      5453      5448      5454      5455
      5448      5454      5456      5448      5454      5457      5455      5454      5456
      5455      5454      5457      5456      5454      5457      5454      5457      5458
      5454      5457      5459      5454      5457      5460      5458      5457      5459
      5458      5457      5460      5459      5457      5460      5457      5460      5461
      5457      5460      5462      5457      5460      5463      5461      5460      5462
      5461      5460      5463      5462      5460      5463      5460      5463      5464
      5460      5463      5465      5460      5463      5469      5464      5463      5465
      5464      5463      5469      5465      5463      5469      5463      5465      5466
      5463      5465      5467      5463      5465      5468      5466      5465      5467
      5466      5465      5468      5467      5465      5468      5463      5469      5470
      5463      5469      5471      5463      5469      5472      5470      5469      5471
      5470      5469      5472      5471      5469      5472     14643     14642     14647
     14643     14642     14651     14643     14642     14655     14647     14642     14651
     14647     14642     14655     14651     14642     14655     14642     14643     14644
     14642     14643     14645     14642     14643     14646     14644     14643     14645
     14644     14643     14646     14645     14643     14646     14642     14647     14648
     14642     14647     14649     14642     14647     14650     14648     14647     14649
     14648     14647     14650     14649     14647     14650     14642     14651     14652
     14642     14651     14653     14642     14651     14654     14652     14651     14653
     14652     14651     14654     14653     14651     14654     14642     14655     14656
     14642     14655     14657     14642     14655     14658     14656     14655     14657
     14656     14655     14658     14657     14655     14658     14655     14658     14659
     14655     14658     14660     14655     14658     14665     14659     14658     14660
     14659     14658     14665     14660     14658     14665     14662     14661     14663
     14662     14661     14664     14662     14661     14665     14663     14661     14664
     14663     14661     14665     14664     14661     14665     14661     14664     14666
     14658     14665     14661     14664     14666     14667     14664     14666     14668
     14664     14666     14671     14667     14666     14668     14667     14666     14671
     14668     14666     14671     14670     14669     14671     14670     14669     14721
     14671     14669     14721     14666     14671     14669     14666     14671     14672
     14666     14671     14673     14669     14671     14672     14669     14671     14673
     14672     14671     14673     14671     14673     14674     14671     14673     14675
     14671     14673     14677     14674     14673     14675     14674     14673     14677
     14675     14673     14677     14673     14675     14676     14673     14677     14678
     14673     14677     14679     14678     14677     14679     14677     14679     14680
     14677     14679     14681     14680     14679     14681     14679     14681     14682
     14679     14681     14683     14679     14681     14684     14682     14681     14683
     14682     14681     14684     14683     14681     14684     14681     14684     14685
     14681     14684     14686     14681     14684     14687     14685     14684     14686
     14685     14684     14687     14686     14684     14687     14684     14687     14688
     14684     14687     14689     14684     14687     14690     14688     14687     14689
     14688     14687     14690     14689     14687     14690     14687     14690     14691
     14687     14690     14692     14687     14690     14693     14691     14690     14692
     14691     14690     14693     14692     14690     14693     14690     14693     14694
     14690     14693     14695     14690     14693     14696     14694     14693     14695
     14694     14693     14696     14695     14693     14696     14693     14696     14697
     14693     14696     14698     14693     14696     14699     14697     14696     14698
     14697     14696     14699     14698     14696     14699     14696     14699     14700
     14696     14699     14701     14696     14699     14702     14700     14699     14701
     14700     14699     14702     14701     14699     14702     14699     14702     14703
     14699     14702     14704     14699     14702     14705     14703     14702     14704
     14703     14702     14705     14704     14702     14705     14702     14705     14706
     14702     14705     14707     14702     14705     14708     14706     14705     14707
     14706     14705     14708     14707     14705     14708     14705     14708     14709
     14705     14708     14710     14705     14708     14711     14709     14708     14710
     14709     14708     14711     14710     14708     14711     14708     14711     14712
     14708     14711     14713     14708     14711     14714     14712     14711     14713
     14712     14711     14714     14713     14711     14714     14711     14714     14715
     14711     14714     14716     14711     14714     14717     14715     14714     14716
     14715     14714     14717     14716     14714     14717     14714     14717     14718
     14714     14717     14719     14714     14717     14720     14718     14717     14719
     14718     14717     14720     14719     14717     14720     14669     14721     14722
     14669     14721     14723     14722     14721     14723     14721     14723     14724
     14721     14723     14725     14721     14723     14726     14724     14723     14725
     14724     14723     14726     14725     14723     14726     14723     14726     14727
     14723     14726     14728     14723     14726     14729     14727     14726     14728
     14727     14726     14729     14728     14726     14729     14726     14729     14730
     14726     14729     14731     14726     14729     14732     14730     14729     14731
     14730     14729     14732     14731     14729     14732     14729     14732     14733
     14729     14732     14734     14729     14732     14735     14733     14732     14734
     14733     14732     14735     14734     14732     14735     14732     14735     14736
     14732     14735     14737     14732     14735     14738     14736     14735     14737
     14736     14735     14738     14737     14735     14738     14735     14738     14739
     14735     14738     14740     14735     14738     14741     14739     14738     14740
     14739     14738     14741     14740     14738     14741     14738     14741     14742
     14738     14741     14743     14738     14741     14744     14742     14741     14743
     14742     14741     14744     14743     14741     14744     14741     14744     14745
     14741     14744     14746     14745     14744     14746     14744     14746     14747
     14744     14746     14748     14747     14746     14748     14746     14748     14749
     14746     14748     14750     14746     14748     14751     14749     14748     14750
     14749     14748     14751     14750     14748     14751     14748     14751     14752
     14748     14751     14753     14748     14751     14754     14752     14751     14753
     14752     14751     14754     14753     14751     14754     14751     14754     14755
     14751     14754     14756     14751     14754     14757     14755     14754     14756
     14755     14754     14757     14756     14754     14757     14754     14757     14758
     14754     14757     14759     14754     14757     14760     14758     14757     14759
     14758     14757     14760     14759     14757     14760     14757     14760     14761
     14757     14760     14762     14757     14760     14763     14761     14760     14762
     14761     14760     14763     14762     14760     14763     14760     14763     14764
     14760     14763     14765     14760     14763     14766     14764     14763     14765
     14764     14763     14766     14765     14763     14766     14763     14766     14767
     14763     14766     14768     14763     14766     14769     14767     14766     14768
     14767     14766     14769     14768     14766     14769     14766     14769     14770
     14766     14769     14771     14766     14769     14772     14770     14769     14771
     14770     14769     14772     14771     14769     14772     18049     18048     18050
     18049     18048     18051     18049     18048     18052     18050     18048     18051
     18050     18048     18052     18051     18048     18052     18048     18052     18053
     18048     18052     18054     18048     18052     18055     18053     18052     18054
     18053     18052     18055     18054     18052     18055     18052     18055     18056
     18052     18055     18057     18052     18055     18061     18056     18055     18057
     18056     18055     18061     18057     18055     18061     18059     18058     18060
     18059     18058     18061     18059     18058     18062     18060     18058     18061
     18060     18058     18062     18061     18058     18062     18055     18061     18058
     18058     18062     18063     18062     18063     18064     18062     18063     18065
     18062     18063     18066     18064     18063     18065     18064     18063     18066
     18065     18063     18066     18063     18066     18067     18063     18066     18068
     18063     18066     18074     18067     18066     18068     18067     18066     18074
     18068     18066     18074     18066     18068     18069     18068     18069     18070
     18068     18069     18071     18070     18069     18071     18069     18071     18072
     18069     18071     18073     18069     18071     18083     18072     18071     18073
     18072     18071     18083     18073     18071     18083     18066     18074     18075
     18066     18074     18076     18066     18074     18077     18075     18074     18076
     18075     18074     18077     18076     18074     18077     18074     18077     18078
     18077     18078     18079     18077     18078     18080     18079     18078     18080
     18078     18080     18081     18078     18080     18082     18078     18080     18130
     18081     18080     18082     18081     18080     18130     18082     18080     18130
     18071     18083     18084     18071     18083     18085     18071     18083     18086
     18084     18083     18085     18084     18083     18086     18085     18083     18086
     18083     18086     18087     18083     18086     18088     18083     18086     18089
     18087     18086     18088     18087     18086     18089     18088     18086     18089
     18086     18089     18090     18086     18089     18091     18090     18089     18091
     18089     18091     18092     18089     18091     18093     18092     18091     18093
     18091     18093     18094     18091     18093     18095     18091     18093     18096
     18094     18093     18095     18094     18093     18096     18095     18093     18096
     18093     18096     18097     18093     18096     18098     18097     18096     18098
     18096     18098     18099     18096     18098     18100     18099     18098     18100
     18098     18100     18101     18098     18100     18102     18098     18100     18103
     18101     18100     18102     18101     18100     18103     18102     18100     18103
     18100     18103     18104     18100     18103     18105     18104     18103     18105
     18103     18105     18106     18103     18105     18107     18106     18105     18107
     18105     18107     18108     18105     18107     18109     18105     18107     18110
     18108     18107     18109     18108     18107     18110     18109     18107     18110
     18107     18110     18111     18107     18110     18112     18111     18110     18112
     18110     18112     18113     18110     18112     18114     18113     18112     18114
     18112     18114     18115     18112     18114     18116     18112     18114     18117
     18115     18114     18116     18115     18114     18117     18116     18114     18117
     18114     18117     18118     18114     18117     18119     18114     18117     18120
     18118     18117     18119     18118     18117     18120     18119     18117     18120
     18117     18120     18121     18117     18120     18122     18117     18120     18123
     18121     18120     18122     18121     18120     18123     18122     18120     18123
     18120     18123     18124     18120     18123     18125     18120     18123     18126
     18124     18123     18125     18124     18123     18126     18125     18123     18126
     18123     18126     18127     18123     18126     18128     18123     18126     18129
     18127     18126     18128     18127     18126     18129     18128     18126     18129
     18080     18130     18131     18080     18130     18132     18080     18130     18133
     18131     18130     18132     18131     18130     18133     18132     18130     18133
     18130     18133     18134     18130     18133     18135     18130     18133     18136
     18134     18133     18135     18134     18133     18136     18135     18133     18136
     18133     18136     18137     18133     18136     18138     18133     18136     18139
     18137     18136     18138     18137     18136     18139     18138     18136     18139
     18136     18139     18140     18136     18139     18141     18136     18139     18142
     18140     18139     18141     18140     18139     18142     18141     18139     18142
     18139     18142     18143     18139     18142     18144     18139     18142     18145
     18143     18142     18144     18143     18142     18145     18144     18142     18145
     18142     18145     18146     18142     18145     18147     18142     18145     18148
     18146     18145     18147     18146     18145     18148     18147     18145     18148
     18145     18148     18149     18145     18148     18150     18145     18148     18151
     18149     18148     18150     18149     18148     18151     18150     18148     18151
     18148     18151     18152     18148     18151     18153     18148     18151     18154
     18152     18151     18153     18152     18151     18154     18153     18151     18154
     18151     18154     18155     18151     18154     18156     18151     18154     18157
     18155     18154     18156     18155     18154     18157     18156     18154     18157
     18154     18157     18158     18154     18157     18159     18154     18157     18160
     18158     18157     18159     18158     18157     18160     18159     18157     18160
     18157     18160     18161     18157     18160     18162     18157     18160     18163
     18161     18160     18162     18161     18160     18163     18162     18160     18163
     18160     18163     18164     18160     18163     18165     18160     18163     18166
     18164     18163     18165     18164     18163     18166     18165     18163     18166
     18163     18166     18167     18163     18166     18168     18163     18166     18169
     18167     18166     18168     18167     18166     18169     18168     18166     18169
     18166     18169     18170     18166     18169     18171     18166     18169     18172
     18170     18169     18171     18170     18169     18172     18171     18169     18172
     18169     18172     18173     18169     18172     18174     18169     18172     18175
     18173     18172     18174     18173     18172     18175     18174     18172     18175
     18172     18175     18176     18172     18175     18177     18172     18175     18178
     18176     18175     18177     18176     18175     18178     18177     18175     18178
     20732     20731     20736     20732     20731     20740     20732     20731     20744
     20736     20731     20740     20736     20731     20744     20740     20731     20744
     20731     20732     20733     20731     20732     20734     20731     20732     20735
     20733     20732     20734     20733     20732     20735     20734     20732     20735
     20731     20736     20737     20731     20736     20738     20731     20736     20739
     20737     20736     20738     20737     20736     20739     20738     20736     20739
     20731     20740     20741     20731     20740     20742     20731     20740     20743
     20741     20740     20742     20741     20740     20743     20742     20740     20743
     20731     20744     20745     20731     20744     20746     20731     20744     20747
     20745     20744     20746     20745     20744     20747     20746     20744     20747
     20744     20747     20748     20744     20747     20749     20744     20747     20753
     20748     20747     20749     20748     20747     20753     20749     20747     20753
     20751     20750     20752     20751     20750     20753     20751     20750     20754
     20752     20750     20753     20752     20750     20754     20753     20750     20754
     20747     20753     20750     20750     20754     20755     20754     20755     20756
     20754     20755     20757     20754     20755     20758     20756     20755     20757
     20756     20755     20758     20757     20755     20758     20755     20758     20759
     20755     20758     20760     20755     20758     20766     20759     20758     20760
     20759     20758     20766     20760     20758     20766     20758     20760     20761
     20760     20761     20762     20760     20761     20763     20762     20761     20763
     20761     20763     20764     20761     20763     20765     20761     20763     20775
     20764     20763     20765     20764     20763     20775     20765     20763     20775
     20758     20766     20767     20758     20766     20768     20758     20766     20769
     20767     20766     20768     20767     20766     20769     20768     20766     20769
     20766     20769     20770     20769     20770     20771     20769     20770     20772
     20771     20770     20772     20770     20772     20773     20770     20772     20774
     20770     20772     20820     20773     20772     20774     20773     20772     20820
     20774     20772     20820     20763     20775     20776     20763     20775     20777
     20763     20775     20778     20776     20775     20777     20776     20775     20778
     20777     20775     20778     20775     20778     20779     20775     20778     20780
     20775     20778     20781     20779     20778     20780     20779     20778     20781
     20780     20778     20781     20778     20781     20782     20778     20781     20783
     20778     20781     20784     20782     20781     20783     20782     20781     20784
     20783     20781     20784     20781     20784     20785     20781     20784     20786
     20781     20784     20787     20785     20784     20786     20785     20784     20787
     20786     20784     20787     20784     20787     20788     20784     20787     20789
     20784     20787     20790     20788     20787     20789     20788     20787     20790
     20789     20787     20790     20787     20790     20791     20787     20790     20792
     20787     20790     20793     20791     20790     20792     20791     20790     20793
     20792     20790     20793     20790     20793     20794     20790     20793     20795
     20794     20793     20795     20793     20795     20796     20793     20795     20797
     20796     20795     20797     20795     20797     20798     20795     20797     20799
     20795     20797     20800     20798     20797     20799     20798     20797     20800
     20799     20797     20800     20797     20800     20801     20797     20800     20802
     20801     20800     20802     20800     20802     20803     20800     20802     20804
     20803     20802     20804     20802     20804     20805     20802     20804     20806
     20802     20804     20807     20805     20804     20806     20805     20804     20807
     20806     20804     20807     20804     20807     20808     20804     20807     20809
     20804     20807     20810     20808     20807     20809     20808     20807     20810
     20809     20807     20810     20807     20810     20811     20807     20810     20812
     20807     20810     20813     20811     20810     20812     20811     20810     20813
     20812     20810     20813     20810     20813     20814     20810     20813     20815
     20810     20813     20816     20814     20813     20815     20814     20813     20816
     20815     20813     20816     20813     20816     20817     20813     20816     20818
     20813     20816     20819     20817     20816     20818     20817     20816     20819
     20818     20816     20819     20772     20820     20821     20772     20820     20822
     20772     20820     20823     20821     20820     20822     20821     20820     20823
     20822     20820     20823     20820     20823     20824     20820     20823     20825
     20820     20823     20826     20824     20823     20825     20824     20823     20826
     20825     20823     20826     20823     20826     20827     20823     20826     20828
     20823     20826     20829     20827     20826     20828     20827     20826     20829
     20828     20826     20829     20826     20829     20830     20826     20829     20831
     20826     20829     20832     20830     20829     20831     20830     20829     20832
     20831     20829     20832     20829     20832     20833     20829     20832     20834
     20829     20832     20835     20833     20832     20834     20833     20832     20835
     20834     20832     20835     20832     20835     20836     20832     20835     20837
     20832     20835     20838     20836     20835     20837     20836     20835     20838
     20837     20835     20838     20835     20838     20839     20835     20838     20840
     20835     20838     20841     20839     20838     20840     20839     20838     20841
     20840     20838     20841     20838     20841     20842     20838     20841     20843
     20838     20841     20844     20842     20841     20843     20842     20841     20844
     20843     20841     20844     20841     20844     20845     20841     20844     20846
     20841     20844     20847     20845     20844     20846     20845     20844     20847
     20846     20844     20847     20844     20847     20848     20844     20847     20849
     20844     20847     20850     20848     20847     20849     20848     20847     20850
     20849     20847     20850     20847     20850     20851     20847     20850     20852
     20847     20850     20853     20851     20850     20852     20851     20850     20853
     20852     20850     20853     20850     20853     20854     20850     20853     20855
     20850     20853     20856     20854     20853     20855     20854     20853     20856
     20855     20853     20856     20853     20856     20857     20853     20856     20858
     20853     20856     20859     20857     20856     20858     20857     20856     20859
     20858     20856     20859     20856     20859     20860     20856     20859     20861
     20856     20859     20862     20860     20859     20861     20860     20859     20862
     20861     20859     20862     20859     20862     20863     20859     20862     20864
     20859     20862     20865     20863     20862     20864     20863     20862     20865
     20864     20862     20865     20862     20865     20866     20862     20865     20867
     20862     20865     20868     20866     20865     20867     20866     20865     20868
     20867     20865     20868     14774     14773     14778     14774     14773     14782
     14774     14773     14786     14778     14773     14782     14778     14773     14786
     14782     14773     14786     14773     14774     14775     14773     14774     14776
     14773     14774     14777     14775     14774     14776     14775     14774     14777
     14776     14774     14777     14773     14778     14779     14773     14778     14780
     14773     14778     14781     14779     14778     14780     14779     14778     14781
     14780     14778     14781     14773     14782     14783     14773     14782     14784
     14773     14782     14785     14783     14782     14784     14783     14782     14785
     14784     14782     14785     14773     14786     14787     14773     14786     14788
     14773     14786     14789     14787     14786     14788     14787     14786     14789
     14788     14786     14789     14786     14789     14790     14786     14789     14791
     14786     14789     14796     14790     14789     14791     14790     14789     14796
     14791     14789     14796     14793     14792     14794     14793     14792     14795
     14793     14792     14796     14794     14792     14795     14794     14792     14796
     14795     14792     14796     14792     14795     14797     14789     14796     14792
     14795     14797     14798     14795     14797     14799     14795     14797     14802
     14798     14797     14799     14798     14797     14802     14799     14797     14802
     14801     14800     14802     14801     14800     14852     14802     14800     14852
     14797     14802     14800     14797     14802     14803     14797     14802     14804
     14800     14802     14803     14800     14802     14804     14803     14802     14804
     14802     14804     14805     14802     14804     14806     14802     14804     14808
     14805     14804     14806     14805     14804     14808     14806     14804     14808
     14804     14806     14807     14804     14808     14809     14804     14808     14810
     14809     14808     14810     14808     14810     14811     14808     14810     14812
     14811     14810     14812     14810     14812     14813     14810     14812     14814
     14810     14812     14815     14813     14812     14814     14813     14812     14815
     14814     14812     14815     14812     14815     14816     14812     14815     14817
     14812     14815     14818     14816     14815     14817     14816     14815     14818
     14817     14815     14818     14815     14818     14819     14815     14818     14820
     14815     14818     14821     14819     14818     14820     14819     14818     14821
     14820     14818     14821     14818     14821     14822     14818     14821     14823
     14818     14821     14824     14822     14821     14823     14822     14821     14824
     14823     14821     14824     14821     14824     14825     14821     14824     14826
     14821     14824     14827     14825     14824     14826     14825     14824     14827
     14826     14824     14827     14824     14827     14828     14824     14827     14829
     14824     14827     14830     14828     14827     14829     14828     14827     14830
     14829     14827     14830     14827     14830     14831     14827     14830     14832
     14827     14830     14833     14831     14830     14832     14831     14830     14833
     14832     14830     14833     14830     14833     14834     14830     14833     14835
     14830     14833     14836     14834     14833     14835     14834     14833     14836
     14835     14833     14836     14833     14836     14837     14833     14836     14838
     14833     14836     14839     14837     14836     14838     14837     14836     14839
     14838     14836     14839     14836     14839     14840     14836     14839     14841
     14836     14839     14842     14840     14839     14841     14840     14839     14842
     14841     14839     14842     14839     14842     14843     14839     14842     14844
     14839     14842     14845     14843     14842     14844     14843     14842     14845
     14844     14842     14845     14842     14845     14846     14842     14845     14847
     14842     14845     14848     14846     14845     14847     14846     14845     14848
     14847     14845     14848     14845     14848     14849     14845     14848     14850
     14845     14848     14851     14849     14848     14850     14849     14848     14851
     14850     14848     14851     14800     14852     14853     14800     14852     14854
     14853     14852     14854     14852     14854     14855     14852     14854     14856
     14852     14854     14857     14855     14854     14856     14855     14854     14857
     14856     14854     14857     14854     14857     14858     14854     14857     14859
     14854     14857     14860     14858     14857     14859     14858     14857     14860
     14859     14857     14860     14857     14860     14861     14857     14860     14862
     14857     14860     14863     14861     14860     14862     14861     14860     14863
     14862     14860     14863     14860     14863     14864     14860     14863     14865
     14860     14863     14866     14864     14863     14865     14864     14863     14866
     14865     14863     14866     14863     14866     14867     14863     14866     14868
     14863     14866     14869     14867     14866     14868     14867     14866     14869
     14868     14866     14869     14866     14869     14870     14866     14869     14871
     14866     14869     14872     14870     14869     14871     14870     14869     14872
     14871     14869     14872     14869     14872     14873     14869     14872     14874
     14869     14872     14875     14873     14872     14874     14873     14872     14875
     14874     14872     14875     14872     14875     14876     14872     14875     14877
     14876     14875     14877     14875     14877     14878     14875     14877     14879
     14878     14877     14879     14877     14879     14880     14877     14879     14881
     14877     14879     14882     14880     14879     14881     14880     14879     14882
     14881     14879     14882     14879     14882     14883     14879     14882     14884
     14879     14882     14885     14883     14882     14884     14883     14882     14885
     14884     14882     14885     14882     14885     14886     14882     14885     14887
     14882     14885     14888     14886     14885     14887     14886     14885     14888
     14887     14885     14888     14885     14888     14889     14885     14888     14890
     14885     14888     14891     14889     14888     14890     14889     14888     14891
     14890     14888     14891     14888     14891     14892     14888     14891     14893
     14888     14891     14894     14892     14891     14893     14892     14891     14894
     14893     14891     14894     14891     14894     14895     14891     14894     14896
     14891     14894     14897     14895     14894     14896     14895     14894     14897
     14896     14894     14897     14894     14897     14898     14894     14897     14899
     14894     14897     14900     14898     14897     14899     14898     14897     14900
     14899     14897     14900     14897     14900     14901     14897     14900     14902
     14897     14900     14903     14901     14900     14902     14901     14900     14903
     14902     14900     14903      5474      5473      5475      5474      5473      5477
      5474      5473      5519      5475      5473      5477      5475      5473      5519
      5477      5473      5519      5473      5475      5476      5473      5477      5478
      5473      5477      5479      5473      5477      5480      5478      5477      5479
      5478      5477      5480      5479      5477      5480      5477      5480      5481
      5477      5480      5511      5481      5480      5511      5480      5481      5482
      5480      5481      5483      5482      5481      5483      5481      5483      5484
      5481      5483      5485      5481      5483      5486      5484      5483      5485
      5484      5483      5486      5485      5483      5486      5483      5486      5487
      5483      5486      5488      5483      5486      5509      5487      5486      5488
      5487      5486      5509      5488      5486      5509      5486      5488      5489
      5486      5488      5490      5486      5488      5498      5489      5488      5490
      5489      5488      5498      5490      5488      5498      5488      5490      5491
      5488      5490      5492      5488      5490      5493      5491      5490      5492
      5491      5490      5493      5492      5490      5493      5490      5493      5494
      5490      5493      5495      5490      5493      5496      5494      5493      5495
      5494      5493      5496      5495      5493      5496      5493      5496      5497
      5493      5496      5498      5493      5496      5522      5497      5496      5498
      5497      5496      5522      5498      5496      5522      5488      5498      5496
      5488      5498      5499      5488      5498      5503      5496      5498      5499
      5496      5498      5503      5499      5498      5503      5498      5499      5500
      5498      5499      5501      5498      5499      5502      5500      5499      5501
      5500      5499      5502      5501      5499      5502      5498      5503      5504
      5498      5503      5505      5498      5503      5506      5504      5503      5505
      5504      5503      5506      5505      5503      5506      5503      5506      5507
      5503      5506      5508      5503      5506      5509      5507      5506      5508
      5507      5506      5509      5508      5506      5509      5486      5509      5506
      5486      5509      5510      5486      5509      5511      5506      5509      5510
      5506      5509      5511      5510      5509      5511      5480      5511      5509
      5480      5511      5512      5480      5511      5516      5509      5511      5512
      5509      5511      5516      5512      5511      5516      5511      5512      5513
      5511      5512      5514      5511      5512      5515      5513      5512      5514
      5513      5512      5515      5514      5512      5515      5511      5516      5517
      5511      5516      5518      5511      5516      5519      5517      5516      5518
      5517      5516      5519      5518      5516      5519      5473      5519      5516
      5473      5519      5520      5473      5519      5521      5516      5519      5520
      5516      5519      5521      5520      5519      5521      5496      5522      5523
      5496      5522      5524      5496      5522      5528      5523      5522      5524
      5523      5522      5528      5524      5522      5528      5522      5524      5525
      5522      5524      5526      5522      5524      5527      5525      5524      5526
      5525      5524      5527      5526      5524      5527      5522      5528      5529
      5522      5528      5530      5522      5528      5531      5529      5528      5530
      5529      5528      5531      5530      5528      5531      5528      5531      5532
      5528      5531      5533      5528      5531      5534      5532      5531      5533
      5532      5531      5534      5533      5531      5534      5531      5534      5535
      5531      5534      5536      5531      5534      5537      5535      5534      5536
      5535      5534      5537      5536      5534      5537      5534      5537      5538
      5534      5537      5539      5534      5537      5543      5538      5537      5539
      5538      5537      5543      5539      5537      5543      5537      5539      5540
      5537      5539      5541      5537      5539      5542      5540      5539      5541
      5540      5539      5542      5541      5539      5542      5537      5543      5544
      5537      5543      5545      5537      5543      5546      5544      5543      5545
      5544      5543      5546      5545      5543      5546      5548      5547      5549
      5548      5547      5551      5548      5547      5593      5549      5547      5551
      5549      5547      5593      5551      5547      5593      5547      5549      5550
      5547      5551      5552      5547      5551      5553      5547      5551      5554
      5552      5551      5553      5552      5551      5554      5553      5551      5554
      5551      5554      5555      5551      5554      5585      5555      5554      5585
      5554      5555      5556      5554      5555      5557      5556      5555      5557
      5555      5557      5558      5555      5557      5559      5555      5557      5560
      5558      5557      5559      5558      5557      5560      5559      5557      5560
      5557      5560      5561      5557      5560      5562      5557      5560      5583
      5561      5560      5562      5561      5560      5583      5562      5560      5583
      5560      5562      5563      5560      5562      5564      5560      5562      5572
      5563      5562      5564      5563      5562      5572      5564      5562      5572
      5562      5564      5565      5562      5564      5566      5562      5564      5567
      5565      5564      5566      5565      5564      5567      5566      5564      5567
      5564      5567      5568      5564      5567      5569      5564      5567      5570
      5568      5567      5569      5568      5567      5570      5569      5567      5570
      5567      5570      5571      5567      5570      5572      5567      5570      5596
      5571      5570      5572      5571      5570      5596      5572      5570      5596
      5562      5572      5570      5562      5572      5573      5562      5572      5577
      5570      5572      5573      5570      5572      5577      5573      5572      5577
      5572      5573      5574      5572      5573      5575      5572      5573      5576
      5574      5573      5575      5574      5573      5576      5575      5573      5576
      5572      5577      5578      5572      5577      5579      5572      5577      5580
      5578      5577      5579      5578      5577      5580      5579      5577      5580
      5577      5580      5581      5577      5580      5582      5577      5580      5583
      5581      5580      5582      5581      5580      5583      5582      5580      5583
      5560      5583      5580      5560      5583      5584      5560      5583      5585
      5580      5583      5584      5580      5583      5585      5584      5583      5585
      5554      5585      5583      5554      5585      5586      5554      5585      5590
      5583      5585      5586      5583      5585      5590      5586      5585      5590
      5585      5586      5587      5585      5586      5588      5585      5586      5589
      5587      5586      5588      5587      5586      5589      5588      5586      5589
      5585      5590      5591      5585      5590      5592      5585      5590      5593
      5591      5590      5592      5591      5590      5593      5592      5590      5593
      5547      5593      5590      5547      5593      5594      5547      5593      5595
      5590      5593      5594      5590      5593      5595      5594      5593      5595
      5570      5596      5597      5570      5596      5598      5570      5596      5602
      5597      5596      5598      5597      5596      5602      5598      5596      5602
      5596      5598      5599      5596      5598      5600      5596      5598      5601
      5599      5598      5600      5599      5598      5601      5600      5598      5601
      5596      5602      5603      5596      5602      5604      5596      5602      5605
      5603      5602      5604      5603      5602      5605      5604      5602      5605
      5602      5605      5606      5602      5605      5607      5602      5605      5608
      5606      5605      5607      5606      5605      5608      5607      5605      5608
      5605      5608      5609      5605      5608      5610      5605      5608      5611
      5609      5608      5610      5609      5608      5611      5610      5608      5611
      5608      5611      5612      5608      5611      5613      5608      5611      5617
      5612      5611      5613      5612      5611      5617      5613      5611      5617
      5611      5613      5614      5611      5613      5615      5611      5613      5616
      5614      5613      5615      5614      5613      5616      5615      5613      5616
      5611      5617      5618      5611      5617      5619      5611      5617      5620
      5618      5617      5619      5618      5617      5620      5619      5617      5620
      5622      5621      5623      5622      5621      5625      5622      5621      5667
      5623      5621      5625      5623      5621      5667      5625      5621      5667
      5621      5623      5624      5621      5625      5626      5621      5625      5627
      5621      5625      5628      5626      5625      5627      5626      5625      5628
      5627      5625      5628      5625      5628      5629      5625      5628      5659
      5629      5628      5659      5628      5629      5630      5628      5629      5631
      5630      5629      5631      5629      5631      5632      5629      5631      5633
      5629      5631      5634      5632      5631      5633      5632      5631      5634
      5633      5631      5634      5631      5634      5635      5631      5634      5636
      5631      5634      5657      5635      5634      5636      5635      5634      5657
      5636      5634      5657      5634      5636      5637      5634      5636      5638
      5634      5636      5646      5637      5636      5638      5637      5636      5646
      5638      5636      5646      5636      5638      5639      5636      5638      5640
      5636      5638      5641      5639      5638      5640      5639      5638      5641
      5640      5638      5641      5638      5641      5642      5638      5641      5643
      5638      5641      5644      5642      5641      5643      5642      5641      5644
      5643      5641      5644      5641      5644      5645      5641      5644      5646
      5641      5644      5670      5645      5644      5646      5645      5644      5670
      5646      5644      5670      5636      5646      5644      5636      5646      5647
      5636      5646      5651      5644      5646      5647      5644      5646      5651
      5647      5646      5651      5646      5647      5648      5646      5647      5649
      5646      5647      5650      5648      5647      5649      5648      5647      5650
      5649      5647      5650      5646      5651      5652      5646      5651      5653
      5646      5651      5654      5652      5651      5653      5652      5651      5654
      5653      5651      5654      5651      5654      5655      5651      5654      5656
      5651      5654      5657      5655      5654      5656      5655      5654      5657
      5656      5654      5657      5634      5657      5654      5634      5657      5658
      5634      5657      5659      5654      5657      5658      5654      5657      5659
      5658      5657      5659      5628      5659      5657      5628      5659      5660
      5628      5659      5664      5657      5659      5660      5657      5659      5664
      5660      5659      5664      5659      5660      5661      5659      5660      5662
      5659      5660      5663      5661      5660      5662      5661      5660      5663
      5662      5660      5663      5659      5664      5665      5659      5664      5666
      5659      5664      5667      5665      5664      5666      5665      5664      5667
      5666      5664      5667      5621      5667      5664      5621      5667      5668
      5621      5667      5669      5664      5667      5668      5664      5667      5669
      5668      5667      5669      5644      5670      5671      5644      5670      5672
      5644      5670      5676      5671      5670      5672      5671      5670      5676
      5672      5670      5676      5670      5672      5673      5670      5672      5674
      5670      5672      5675      5673      5672      5674      5673      5672      5675
      5674      5672      5675      5670      5676      5677      5670      5676      5678
      5670      5676      5679      5677      5676      5678      5677      5676      5679
      5678      5676      5679      5676      5679      5680      5676      5679      5681
      5676      5679      5682      5680      5679      5681      5680      5679      5682
      5681      5679      5682      5679      5682      5683      5679      5682      5684
      5679      5682      5685      5683      5682      5684      5683      5682      5685
      5684      5682      5685      5682      5685      5686      5682      5685      5687
      5682      5685      5691      5686      5685      5687      5686      5685      5691
      5687      5685      5691      5685      5687      5688      5685      5687      5689
      5685      5687      5690      5688      5687      5689      5688      5687      5690
      5689      5687      5690      5685      5691      5692      5685      5691      5693
      5685      5691      5694      5692      5691      5693      5692      5691      5694
      5693      5691      5694      5696      5695      5697      5696      5695      5699
      5696      5695      5741      5697      5695      5699      5697      5695      5741
      5699      5695      5741      5695      5697      5698      5695      5699      5700
      5695      5699      5701      5695      5699      5702      5700      5699      5701
      5700      5699      5702      5701      5699      5702      5699      5702      5703
      5699      5702      5733      5703      5702      5733      5702      5703      5704
      5702      5703      5705      5704      5703      5705      5703      5705      5706
      5703      5705      5707      5703      5705      5708      5706      5705      5707
      5706      5705      5708      5707      5705      5708      5705      5708      5709
      5705      5708      5710      5705      5708      5731      5709      5708      5710
      5709      5708      5731      5710      5708      5731      5708      5710      5711
      5708      5710      5712      5708      5710      5720      5711      5710      5712
      5711      5710      5720      5712      5710      5720      5710      5712      5713
      5710      5712      5714      5710      5712      5715      5713      5712      5714
      5713      5712      5715      5714      5712      5715      5712      5715      5716
      5712      5715      5717      5712      5715      5718      5716      5715      5717
      5716      5715      5718      5717      5715      5718      5715      5718      5719
      5715      5718      5720      5715      5718      5744      5719      5718      5720
      5719      5718      5744      5720      5718      5744      5710      5720      5718
      5710      5720      5721      5710      5720      5725      5718      5720      5721
      5718      5720      5725      5721      5720      5725      5720      5721      5722
      5720      5721      5723      5720      5721      5724      5722      5721      5723
      5722      5721      5724      5723      5721      5724      5720      5725      5726
      5720      5725      5727      5720      5725      5728      5726      5725      5727
      5726      5725      5728      5727      5725      5728      5725      5728      5729
      5725      5728      5730      5725      5728      5731      5729      5728      5730
      5729      5728      5731      5730      5728      5731      5708      5731      5728
      5708      5731      5732      5708      5731      5733      5728      5731      5732
      5728      5731      5733      5732      5731      5733      5702      5733      5731
      5702      5733      5734      5702      5733      5738      5731      5733      5734
      5731      5733      5738      5734      5733      5738      5733      5734      5735
      5733      5734      5736      5733      5734      5737      5735      5734      5736
      5735      5734      5737      5736      5734      5737      5733      5738      5739
      5733      5738      5740      5733      5738      5741      5739      5738      5740
      5739      5738      5741      5740      5738      5741      5695      5741      5738
      5695      5741      5742      5695      5741      5743      5738      5741      5742
      5738      5741      5743      5742      5741      5743      5718      5744      5745
      5718      5744      5746      5718      5744      5750      5745      5744      5746
      5745      5744      5750      5746      5744      5750      5744      5746      5747
      5744      5746      5748      5744      5746      5749      5747      5746      5748
      5747      5746      5749      5748      5746      5749      5744      5750      5751
      5744      5750      5752      5744      5750      5753      5751      5750      5752
      5751      5750      5753      5752      5750      5753      5750      5753      5754
      5750      5753      5755      5750      5753      5756      5754      5753      5755
      5754      5753      5756      5755      5753      5756      5753      5756      5757
      5753      5756      5758      5753      5756      5759      5757      5756      5758
      5757      5756      5759      5758      5756      5759      5756      5759      5760
      5756      5759      5761      5756      5759      5765      5760      5759      5761
      5760      5759      5765      5761      5759      5765      5759      5761      5762
      5759      5761      5763      5759      5761      5764      5762      5761      5763
      5762      5761      5764      5763      5761      5764      5759      5765      5766
      5759      5765      5767      5759      5765      5768      5766      5765      5767
      5766      5765      5768      5767      5765      5768     18180     18179     18181
     18180     18179     18182     18180     18179     18183     18181     18179     18182
     18181     18179     18183     18182     18179     18183     18179     18183     18184
     18179     18183     18185     18179     18183     18186     18184     18183     18185
     18184     18183     18186     18185     18183     18186     18183     18186     18187
     18183     18186     18188     18183     18186     18192     18187     18186     18188
     18187     18186     18192     18188     18186     18192     18190     18189     18191
     18190     18189     18192     18190     18189     18193     18191     18189     18192
     18191     18189     18193     18192     18189     18193     18186     18192     18189
     18189     18193     18194     18193     18194     18195     18193     18194     18196
     18193     18194     18197     18195     18194     18196     18195     18194     18197
     18196     18194     18197     18194     18197     18198     18194     18197     18199
     18194     18197     18205     18198     18197     18199     18198     18197     18205
     18199     18197     18205     18197     18199     18200     18199     18200     18201
     18199     18200     18202     18201     18200     18202     18200     18202     18203
     18200     18202     18204     18200     18202     18214     18203     18202     18204
     18203     18202     18214     18204     18202     18214     18197     18205     18206
     18197     18205     18207     18197     18205     18208     18206     18205     18207
     18206     18205     18208     18207     18205     18208     18205     18208     18209
     18208     18209     18210     18208     18209     18211     18210     18209     18211
     18209     18211     18212     18209     18211     18213     18209     18211     18261
     18212     18211     18213     18212     18211     18261     18213     18211     18261
     18202     18214     18215     18202     18214     18216     18202     18214     18217
     18215     18214     18216     18215     18214     18217     18216     18214     18217
     18214     18217     18218     18214     18217     18219     18214     18217     18220
     18218     18217     18219     18218     18217     18220     18219     18217     18220
     18217     18220     18221     18217     18220     18222     18221     18220     18222
     18220     18222     18223     18220     18222     18224     18223     18222     18224
     18222     18224     18225     18222     18224     18226     18222     18224     18227
     18225     18224     18226     18225     18224     18227     18226     18224     18227
     18224     18227     18228     18224     18227     18229     18228     18227     18229
     18227     18229     18230     18227     18229     18231     18230     18229     18231
     18229     18231     18232     18229     18231     18233     18229     18231     18234
     18232     18231     18233     18232     18231     18234     18233     18231     18234
     18231     18234     18235     18231     18234     18236     18235     18234     18236
     18234     18236     18237     18234     18236     18238     18237     18236     18238
     18236     18238     18239     18236     18238     18240     18236     18238     18241
     18239     18238     18240     18239     18238     18241     18240     18238     18241
     18238     18241     18242     18238     18241     18243     18242     18241     18243
     18241     18243     18244     18241     18243     18245     18244     18243     18245
     18243     18245     18246     18243     18245     18247     18243     18245     18248
     18246     18245     18247     18246     18245     18248     18247     18245     18248
     18245     18248     18249     18245     18248     18250     18245     18248     18251
     18249     18248     18250     18249     18248     18251     18250     18248     18251
     18248     18251     18252     18248     18251     18253     18248     18251     18254
     18252     18251     18253     18252     18251     18254     18253     18251     18254
     18251     18254     18255     18251     18254     18256     18251     18254     18257
     18255     18254     18256     18255     18254     18257     18256     18254     18257
     18254     18257     18258     18254     18257     18259     18254     18257     18260
     18258     18257     18259     18258     18257     18260     18259     18257     18260
     18211     18261     18262     18211     18261     18263     18211     18261     18264
     18262     18261     18263     18262     18261     18264     18263     18261     18264
     18261     18264     18265     18261     18264     18266     18261     18264     18267
     18265     18264     18266     18265     18264     18267     18266     18264     18267
     18264     18267     18268     18264     18267     18269     18264     18267     18270
     18268     18267     18269     18268     18267     18270     18269     18267     18270
     18267     18270     18271     18267     18270     18272     18267     18270     18273
     18271     18270     18272     18271     18270     18273     18272     18270     18273
     18270     18273     18274     18270     18273     18275     18270     18273     18276
     18274     18273     18275     18274     18273     18276     18275     18273     18276
     18273     18276     18277     18273     18276     18278     18273     18276     18279
     18277     18276     18278     18277     18276     18279     18278     18276     18279
     18276     18279     18280     18276     18279     18281     18276     18279     18282
     18280     18279     18281     18280     18279     18282     18281     18279     18282
     18279     18282     18283     18279     18282     18284     18279     18282     18285
     18283     18282     18284     18283     18282     18285     18284     18282     18285
     18282     18285     18286     18282     18285     18287     18282     18285     18288
     18286     18285     18287     18286     18285     18288     18287     18285     18288
     18285     18288     18289     18285     18288     18290     18285     18288     18291
     18289     18288     18290     18289     18288     18291     18290     18288     18291
     18288     18291     18292     18288     18291     18293     18288     18291     18294
     18292     18291     18293     18292     18291     18294     18293     18291     18294
     18291     18294     18295     18291     18294     18296     18291     18294     18297
     18295     18294     18296     18295     18294     18297     18296     18294     18297
     18294     18297     18298     18294     18297     18299     18294     18297     18300
     18298     18297     18299     18298     18297     18300     18299     18297     18300
     18297     18300     18301     18297     18300     18302     18297     18300     18303
     18301     18300     18302     18301     18300     18303     18302     18300     18303
     18300     18303     18304     18300     18303     18305     18300     18303     18306
     18304     18303     18305     18304     18303     18306     18305     18303     18306
     18303     18306     18307     18303     18306     18308     18303     18306     18309
     18307     18306     18308     18307     18306     18309     18308     18306     18309
      5770      5769      5771      5770      5769      5773      5770      5769      5815
      5771      5769      5773      5771      5769      5815      5773      5769      5815
      5769      5771      5772      5769      5773      5774      5769      5773      5775
      5769      5773      5776      5774      5773      5775      5774      5773      5776
      5775      5773      5776      5773      5776      5777      5773      5776      5807
      5777      5776      5807      5776      5777      5778      5776      5777      5779
      5778      5777      5779      5777      5779      5780      5777      5779      5781
      5777      5779      5782      5780      5779      5781      5780      5779      5782
      5781      5779      5782      5779      5782      5783      5779      5782      5784
      5779      5782      5805      5783      5782      5784      5783      5782      5805
      5784      5782      5805      5782      5784      5785      5782      5784      5786
      5782      5784      5794      5785      5784      5786      5785      5784      5794
      5786      5784      5794      5784      5786      5787      5784      5786      5788
      5784      5786      5789      5787      5786      5788      5787      5786      5789
      5788      5786      5789      5786      5789      5790      5786      5789      5791
      5786      5789      5792      5790      5789      5791      5790      5789      5792
      5791      5789      5792      5789      5792      5793      5789      5792      5794
      5789      5792      5818      5793      5792      5794      5793      5792      5818
      5794      5792      5818      5784      5794      5792      5784      5794      5795
      5784      5794      5799      5792      5794      5795      5792      5794      5799
      5795      5794      5799      5794      5795      5796      5794      5795      5797
      5794      5795      5798      5796      5795      5797      5796      5795      5798
      5797      5795      5798      5794      5799      5800      5794      5799      5801
      5794      5799      5802      5800      5799      5801      5800      5799      5802
      5801      5799      5802      5799      5802      5803      5799      5802      5804
      5799      5802      5805      5803      5802      5804      5803      5802      5805
      5804      5802      5805      5782      5805      5802      5782      5805      5806
      5782      5805      5807      5802      5805      5806      5802      5805      5807
      5806      5805      5807      5776      5807      5805      5776      5807      5808
      5776      5807      5812      5805      5807      5808      5805      5807      5812
      5808      5807      5812      5807      5808      5809      5807      5808      5810
      5807      5808      5811      5809      5808      5810      5809      5808      5811
      5810      5808      5811      5807      5812      5813      5807      5812      5814
      5807      5812      5815      5813      5812      5814      5813      5812      5815
      5814      5812      5815      5769      5815      5812      5769      5815      5816
      5769      5815      5817      5812      5815      5816      5812      5815      5817
      5816      5815      5817      5792      5818      5819      5792      5818      5820
      5792      5818      5824      5819      5818      5820      5819      5818      5824
      5820      5818      5824      5818      5820      5821      5818      5820      5822
      5818      5820      5823      5821      5820      5822      5821      5820      5823
      5822      5820      5823      5818      5824      5825      5818      5824      5826
      5818      5824      5827      5825      5824      5826      5825      5824      5827
      5826      5824      5827      5824      5827      5828      5824      5827      5829
      5824      5827      5830      5828      5827      5829      5828      5827      5830
      5829      5827      5830      5827      5830      5831      5827      5830      5832
      5827      5830      5833      5831      5830      5832      5831      5830      5833
      5832      5830      5833      5830      5833      5834      5830      5833      5835
      5830      5833      5839      5834      5833      5835      5834      5833      5839
      5835      5833      5839      5833      5835      5836      5833      5835      5837
      5833      5835      5838      5836      5835      5837      5836      5835      5838
      5837      5835      5838      5833      5839      5840      5833      5839      5841
      5833      5839      5842      5840      5839      5841      5840      5839      5842
      5841      5839      5842      7985      7984      7986      7985      7984      7987
      7985      7984      7988      7986      7984      7987      7986      7984      7988
      7987      7984      7988      7984      7988      7989      7984      7988      7990
      7984      7988      7991      7989      7988      7990      7989      7988      7991
      7990      7988      7991      7988      7991      7992      7988      7991      7993
      7988      7991      7997      7992      7991      7993      7992      7991      7997
      7993      7991      7997      7995      7994      7996      7995      7994      7997
      7995      7994      7998      7996      7994      7997      7996      7994      7998
      7997      7994      7998      7991      7997      7994      7994      7998      7999
      7998      7999      8000      7998      7999      8001      7998      7999      8002
      8000      7999      8001      8000      7999      8002      8001      7999      8002
      7999      8002      8003      7999      8002      8004      7999      8002      8010
      8003      8002      8004      8003      8002      8010      8004      8002      8010
      8002      8004      8005      8004      8005      8006      8004      8005      8007
      8006      8005      8007      8005      8007      8008      8005      8007      8009
      8005      8007      8019      8008      8007      8009      8008      8007      8019
      8009      8007      8019      8002      8010      8011      8002      8010      8012
      8002      8010      8013      8011      8010      8012      8011      8010      8013
      8012      8010      8013      8010      8013      8014      8013      8014      8015
      8013      8014      8016      8015      8014      8016      8014      8016      8017
      8014      8016      8018      8014      8016      8066      8017      8016      8018
      8017      8016      8066      8018      8016      8066      8007      8019      8020
      8007      8019      8021      8007      8019      8022      8020      8019      8021
      8020      8019      8022      8021      8019      8022      8019      8022      8023
      8019      8022      8024      8019      8022      8025      8023      8022      8024
      8023      8022      8025      8024      8022      8025      8022      8025      8026
      8022      8025      8027      8022      8025      8028      8026      8025      8027
      8026      8025      8028      8027      8025      8028      8025      8028      8029
      8025      8028      8030      8025      8028      8031      8029      8028      8030
      8029      8028      8031      8030      8028      8031      8028      8031      8032
      8028      8031      8033      8028      8031      8034      8032      8031      8033
      8032      8031      8034      8033      8031      8034      8031      8034      8035
      8031      8034      8036      8031      8034      8037      8035      8034      8036
      8035      8034      8037      8036      8034      8037      8034      8037      8038
      8034      8037      8039      8038      8037      8039      8037      8039      8040
      8037      8039      8041      8040      8039      8041      8039      8041      8042
      8039      8041      8043      8039      8041      8044      8042      8041      8043
      8042      8041      8044      8043      8041      8044      8041      8044      8045
      8041      8044      8046      8041      8044      8047      8045      8044      8046
      8045      8044      8047      8046      8044      8047      8044      8047      8048
      8044      8047      8049      8044      8047      8050      8048      8047      8049
      8048      8047      8050      8049      8047      8050      8047      8050      8051
      8047      8050      8052      8047      8050      8053      8051      8050      8052
      8051      8050      8053      8052      8050      8053      8050      8053      8054
      8050      8053      8055      8050      8053      8056      8054      8053      8055
      8054      8053      8056      8055      8053      8056      8053      8056      8057
      8053      8056      8058      8053      8056      8059      8057      8056      8058
      8057      8056      8059      8058      8056      8059      8056      8059      8060
      8056      8059      8061      8056      8059      8062      8060      8059      8061
      8060      8059      8062      8061      8059      8062      8059      8062      8063
      8059      8062      8064      8059      8062      8065      8063      8062      8064
      8063      8062      8065      8064      8062      8065      8016      8066      8067
      8016      8066      8068      8016      8066      8069      8067      8066      8068
      8067      8066      8069      8068      8066      8069      8066      8069      8070
      8066      8069      8071      8066      8069      8072      8070      8069      8071
      8070      8069      8072      8071      8069      8072      8069      8072      8073
      8069      8072      8074      8069      8072      8075      8073      8072      8074
      8073      8072      8075      8074      8072      8075      8072      8075      8076
      8072      8075      8077      8072      8075      8078      8076      8075      8077
      8076      8075      8078      8077      8075      8078      8075      8078      8079
      8075      8078      8080      8075      8078      8081      8079      8078      8080
      8079      8078      8081      8080      8078      8081      8078      8081      8082
      8078      8081      8083      8078      8081      8084      8082      8081      8083
      8082      8081      8084      8083      8081      8084      8081      8084      8085
      8081      8084      8086      8081      8084      8087      8085      8084      8086
      8085      8084      8087      8086      8084      8087      8084      8087      8088
      8084      8087      8089      8084      8087      8090      8088      8087      8089
      8088      8087      8090      8089      8087      8090      8087      8090      8091
      8087      8090      8092      8087      8090      8093      8091      8090      8092
      8091      8090      8093      8092      8090      8093      8090      8093      8094
      8090      8093      8095      8090      8093      8096      8094      8093      8095
      8094      8093      8096      8095      8093      8096      8093      8096      8097
      8093      8096      8098      8093      8096      8099      8097      8096      8098
      8097      8096      8099      8098      8096      8099      8096      8099      8100
      8096      8099      8101      8096      8099      8102      8100      8099      8101
      8100      8099      8102      8101      8099      8102      8099      8102      8103
      8099      8102      8104      8099      8102      8105      8103      8102      8104
      8103      8102      8105      8104      8102      8105      8102      8105      8106
      8102      8105      8107      8102      8105      8108      8106      8105      8107
      8106      8105      8108      8107      8105      8108      8105      8108      8109
      8105      8108      8110      8105      8108      8111      8109      8108      8110
      8109      8108      8111      8110      8108      8111      8108      8111      8112
      8108      8111      8113      8108      8111      8114      8112      8111      8113
      8112      8111      8114      8113      8111      8114     21414     21413     21417
     21414     21413     21421     21414     21413     21425     21417     21413     21421
     21417     21413     21425     21421     21413     21425     21413     21414     21415
     21413     21414     21416     21413     21414     21429     21415     21414     21416
     21415     21414     21429     21416     21414     21429     21413     21417     21418
     21413     21417     21419     21413     21417     21420     21418     21417     21419
     21418     21417     21420     21419     21417     21420     21413     21421     21422
     21413     21421     21423     21413     21421     21424     21422     21421     21423
     21422     21421     21424     21423     21421     21424     21413     21425     21426
     21413     21425     21427     21413     21425     21428     21426     21425     21427
     21426     21425     21428     21427     21425     21428     21414     21429     21430
     21414     21429     21431     21414     21429     21435     21430     21429     21431
     21430     21429     21435     21431     21429     21435     21433     21432     21434
     21433     21432     21435     21433     21432     21436     21434     21432     21435
     21434     21432     21436     21435     21432     21436     21429     21435     21432
     21432     21436     21437     21436     21437     21438     21436     21437     21439
     21436     21437     21440     21438     21437     21439     21438     21437     21440
     21439     21437     21440     21437     21440     21441     21437     21440     21442
     21437     21440     21448     21441     21440     21442     21441     21440     21448
     21442     21440     21448     21440     21442     21443     21442     21443     21444
     21442     21443     21445     21444     21443     21445     21443     21445     21446
     21443     21445     21447     21443     21445     21457     21446     21445     21447
     21446     21445     21457     21447     21445     21457     21440     21448     21449
     21440     21448     21450     21440     21448     21451     21449     21448     21450
     21449     21448     21451     21450     21448     21451     21448     21451     21452
     21451     21452     21453     21451     21452     21454     21453     21452     21454
     21452     21454     21455     21452     21454     21456     21452     21454     21504
     21455     21454     21456     21455     21454     21504     21456     21454     21504
     21445     21457     21458     21445     21457     21459     21445     21457     21460
     21458     21457     21459     21458     21457     21460     21459     21457     21460
     21457     21460     21461     21457     21460     21462     21457     21460     21463
     21461     21460     21462     21461     21460     21463     21462     21460     21463
     21460     21463     21464     21460     21463     21465     21460     21463     21466
     21464     21463     21465     21464     21463     21466     21465     21463     21466
     21463     21466     21467     21463     21466     21468     21463     21466     21469
     21467     21466     21468     21467     21466     21469     21468     21466     21469
     21466     21469     21470     21466     21469     21471     21466     21469     21472
     21470     21469     21471     21470     21469     21472     21471     21469     21472
     21469     21472     21473     21469     21472     21474     21469     21472     21475
     21473     21472     21474     21473     21472     21475     21474     21472     21475
     21472     21475     21476     21472     21475     21477     21476     21475     21477
     21475     21477     21478     21475     21477     21479     21478     21477     21479
     21477     21479     21480     21477     21479     21481     21477     21479     21482
     21480     21479     21481     21480     21479     21482     21481     21479     21482
     21479     21482     21483     21479     21482     21484     21479     21482     21485
     21483     21482     21484     21483     21482     21485     21484     21482     21485
     21482     21485     21486     21482     21485     21487     21482     21485     21488
     21486     21485     21487     21486     21485     21488     21487     21485     21488
     21485     21488     21489     21485     21488     21490     21485     21488     21491
     21489     21488     21490     21489     21488     21491     21490     21488     21491
     21488     21491     21492     21488     21491     21493     21488     21491     21494
     21492     21491     21493     21492     21491     21494     21493     21491     21494
     21491     21494     21495     21491     21494     21496     21491     21494     21497
     21495     21494     21496     21495     21494     21497     21496     21494     21497
     21494     21497     21498     21494     21497     21499     21494     21497     21500
     21498     21497     21499     21498     21497     21500     21499     21497     21500
     21497     21500     21501     21497     21500     21502     21497     21500     21503
     21501     21500     21502     21501     21500     21503     21502     21500     21503
     21454     21504     21505     21454     21504     21506     21454     21504     21507
     21505     21504     21506     21505     21504     21507     21506     21504     21507
     21504     21507     21508     21504     21507     21509     21504     21507     21510
     21508     21507     21509     21508     21507     21510     21509     21507     21510
     21507     21510     21511     21507     21510     21512     21507     21510     21513
     21511     21510     21512     21511     21510     21513     21512     21510     21513
     21510     21513     21514     21510     21513     21515     21510     21513     21516
     21514     21513     21515     21514     21513     21516     21515     21513     21516
     21513     21516     21517     21513     21516     21518     21513     21516     21519
     21517     21516     21518     21517     21516     21519     21518     21516     21519
     21516     21519     21520     21516     21519     21521     21516     21519     21522
     21520     21519     21521     21520     21519     21522     21521     21519     21522
     21519     21522     21523     21519     21522     21524     21519     21522     21525
     21523     21522     21524     21523     21522     21525     21524     21522     21525
     21522     21525     21526     21522     21525     21527     21522     21525     21528
     21526     21525     21527     21526     21525     21528     21527     21525     21528
     21525     21528     21529     21525     21528     21530     21525     21528     21531
     21529     21528     21530     21529     21528     21531     21530     21528     21531
     21528     21531     21532     21528     21531     21533     21528     21531     21534
     21532     21531     21533     21532     21531     21534     21533     21531     21534
     21531     21534     21535     21531     21534     21536     21531     21534     21537
     21535     21534     21536     21535     21534     21537     21536     21534     21537
     21534     21537     21538     21534     21537     21539     21534     21537     21540
     21538     21537     21539     21538     21537     21540     21539     21537     21540
     21537     21540     21541     21537     21540     21542     21537     21540     21543
     21541     21540     21542     21541     21540     21543     21542     21540     21543
     21540     21543     21544     21540     21543     21545     21540     21543     21546
     21544     21543     21545     21544     21543     21546     21545     21543     21546
     18311     18310     18312     18311     18310     18313     18311     18310     18314
     18312     18310     18313     18312     18310     18314     18313     18310     18314
     18310     18314     18315     18310     18314     18316     18310     18314     18317
     18315     18314     18316     18315     18314     18317     18316     18314     18317
     18314     18317     18318     18314     18317     18319     18314     18317     18323
     18318     18317     18319     18318     18317     18323     18319     18317     18323
     18321     18320     18322     18321     18320     18323     18321     18320     18324
     18322     18320     18323     18322     18320     18324     18323     18320     18324
     18317     18323     18320     18320     18324     18325     18324     18325     18326
     18324     18325     18327     18324     18325     18328     18326     18325     18327
     18326     18325     18328     18327     18325     18328     18325     18328     18329
     18325     18328     18330     18325     18328     18336     18329     18328     18330
     18329     18328     18336     18330     18328     18336     18328     18330     18331
     18330     18331     18332     18330     18331     18333     18332     18331     18333
     18331     18333     18334     18331     18333     18335     18331     18333     18345
     18334     18333     18335     18334     18333     18345     18335     18333     18345
     18328     18336     18337     18328     18336     18338     18328     18336     18339
     18337     18336     18338     18337     18336     18339     18338     18336     18339
     18336     18339     18340     18339     18340     18341     18339     18340     18342
     18341     18340     18342     18340     18342     18343     18340     18342     18344
     18340     18342     18392     18343     18342     18344     18343     18342     18392
     18344     18342     18392     18333     18345     18346     18333     18345     18347
     18333     18345     18348     18346     18345     18347     18346     18345     18348
     18347     18345     18348     18345     18348     18349     18345     18348     18350
     18345     18348     18351     18349     18348     18350     18349     18348     18351
     18350     18348     18351     18348     18351     18352     18348     18351     18353
     18352     18351     18353     18351     18353     18354     18351     18353     18355
     18354     18353     18355     18353     18355     18356     18353     18355     18357
     18353     18355     18358     18356     18355     18357     18356     18355     18358
     18357     18355     18358     18355     18358     18359     18355     18358     18360
     18359     18358     18360     18358     18360     18361     18358     18360     18362
     18361     18360     18362     18360     18362     18363     18360     18362     18364
     18360     18362     18365     18363     18362     18364     18363     18362     18365
     18364     18362     18365     18362     18365     18366     18362     18365     18367
     18366     18365     18367     18365     18367     18368     18365     18367     18369
     18368     18367     18369     18367     18369     18370     18367     18369     18371
     18367     18369     18372     18370     18369     18371     18370     18369     18372
     18371     18369     18372     18369     18372     18373     18369     18372     18374
     18373     18372     18374     18372     18374     18375     18372     18374     18376
     18375     18374     18376     18374     18376     18377     18374     18376     18378
     18374     18376     18379     18377     18376     18378     18377     18376     18379
     18378     18376     18379     18376     18379     18380     18376     18379     18381
     18376     18379     18382     18380     18379     18381     18380     18379     18382
     18381     18379     18382     18379     18382     18383     18379     18382     18384
     18379     18382     18385     18383     18382     18384     18383     18382     18385
     18384     18382     18385     18382     18385     18386     18382     18385     18387
     18382     18385     18388     18386     18385     18387     18386     18385     18388
     18387     18385     18388     18385     18388     18389     18385     18388     18390
     18385     18388     18391     18389     18388     18390     18389     18388     18391
     18390     18388     18391     18342     18392     18393     18342     18392     18394
     18342     18392     18395     18393     18392     18394     18393     18392     18395
     18394     18392     18395     18392     18395     18396     18392     18395     18397
     18392     18395     18398     18396     18395     18397     18396     18395     18398
     18397     18395     18398     18395     18398     18399     18395     18398     18400
     18395     18398     18401     18399     18398     18400     18399     18398     18401
     18400     18398     18401     18398     18401     18402     18398     18401     18403
     18398     18401     18404     18402     18401     18403     18402     18401     18404
     18403     18401     18404     18401     18404     18405     18401     18404     18406
     18401     18404     18407     18405     18404     18406     18405     18404     18407
     18406     18404     18407     18404     18407     18408     18404     18407     18409
     18404     18407     18410     18408     18407     18409     18408     18407     18410
     18409     18407     18410     18407     18410     18411     18407     18410     18412
     18407     18410     18413     18411     18410     18412     18411     18410     18413
     18412     18410     18413     18410     18413     18414     18410     18413     18415
     18410     18413     18416     18414     18413     18415     18414     18413     18416
     18415     18413     18416     18413     18416     18417     18413     18416     18418
     18413     18416     18419     18417     18416     18418     18417     18416     18419
     18418     18416     18419     18416     18419     18420     18416     18419     18421
     18416     18419     18422     18420     18419     18421     18420     18419     18422
     18421     18419     18422     18419     18422     18423     18419     18422     18424
     18419     18422     18425     18423     18422     18424     18423     18422     18425
     18424     18422     18425     18422     18425     18426     18422     18425     18427
     18422     18425     18428     18426     18425     18427     18426     18425     18428
     18427     18425     18428     18425     18428     18429     18425     18428     18430
     18425     18428     18431     18429     18428     18430     18429     18428     18431
     18430     18428     18431     18428     18431     18432     18428     18431     18433
     18428     18431     18434     18432     18431     18433     18432     18431     18434
     18433     18431     18434     18431     18434     18435     18431     18434     18436
     18431     18434     18437     18435     18434     18436     18435     18434     18437
     18436     18434     18437     18434     18437     18438     18434     18437     18439
     18434     18437     18440     18438     18437     18439     18438     18437     18440
     18439     18437     18440      9638      9637      9641      9638      9637      9645
      9638      9637      9649      9641      9637      9645      9641      9637      9649
      9645      9637      9649      9637      9638      9639      9637      9638      9640
      9637      9638      9653      9639      9638      9640      9639      9638      9653
      9640      9638      9653      9637      9641      9642      9637      9641      9643
      9637      9641      9644      9642      9641      9643      9642      9641      9644
      9643      9641      9644      9637      9645      9646      9637      9645      9647
      9637      9645      9648      9646      9645      9647      9646      9645      9648
      9647      9645      9648      9637      9649      9650      9637      9649      9651
      9637      9649      9652      9650      9649      9651      9650      9649      9652
      9651      9649      9652      9638      9653      9654      9638      9653      9655
      9638      9653      9659      9654      9653      9655      9654      9653      9659
      9655      9653      9659      9657      9656      9658      9657      9656      9659
      9657      9656      9660      9658      9656      9659      9658      9656      9660
      9659      9656      9660      9653      9659      9656      9656      9660      9661
      9660      9661      9662      9660      9661      9663      9660      9661      9664
      9662      9661      9663      9662      9661      9664      9663      9661      9664
      9661      9664      9665      9661      9664      9666      9661      9664      9672
      9665      9664      9666      9665      9664      9672      9666      9664      9672
      9664      9666      9667      9666      9667      9668      9666      9667      9669
      9668      9667      9669      9667      9669      9670      9667      9669      9671
      9667      9669      9681      9670      9669      9671      9670      9669      9681
      9671      9669      9681      9664      9672      9673      9664      9672      9674
      9664      9672      9675      9673      9672      9674      9673      9672      9675
      9674      9672      9675      9672      9675      9676      9675      9676      9677
      9675      9676      9678      9677      9676      9678      9676      9678      9679
      9676      9678      9680      9676      9678      9728      9679      9678      9680
      9679      9678      9728      9680      9678      9728      9669      9681      9682
      9669      9681      9683      9669      9681      9684      9682      9681      9683
      9682      9681      9684      9683      9681      9684      9681      9684      9685
      9681      9684      9686      9681      9684      9687      9685      9684      9686
      9685      9684      9687      9686      9684      9687      9684      9687      9688
      9684      9687      9689      9688      9687      9689      9687      9689      9690
      9687      9689      9691      9690      9689      9691      9689      9691      9692
      9689      9691      9693      9689      9691      9694      9692      9691      9693
      9692      9691      9694      9693      9691      9694      9691      9694      9695
      9691      9694      9696      9695      9694      9696      9694      9696      9697
      9694      9696      9698      9697      9696      9698      9696      9698      9699
      9696      9698      9700      9696      9698      9701      9699      9698      9700
      9699      9698      9701      9700      9698      9701      9698      9701      9702
      9698      9701      9703      9702      9701      9703      9701      9703      9704
      9701      9703      9705      9704      9703      9705      9703      9705      9706
      9703      9705      9707      9703      9705      9708      9706      9705      9707
      9706      9705      9708      9707      9705      9708      9705      9708      9709
      9705      9708      9710      9709      9708      9710      9708      9710      9711
      9708      9710      9712      9711      9710      9712      9710      9712      9713
      9710      9712      9714      9710      9712      9715      9713      9712      9714
      9713      9712      9715      9714      9712      9715      9712      9715      9716
      9712      9715      9717      9712      9715      9718      9716      9715      9717
      9716      9715      9718      9717      9715      9718      9715      9718      9719
      9715      9718      9720      9715      9718      9721      9719      9718      9720
      9719      9718      9721      9720      9718      9721      9718      9721      9722
      9718      9721      9723      9718      9721      9724      9722      9721      9723
      9722      9721      9724      9723      9721      9724      9721      9724      9725
      9721      9724      9726      9721      9724      9727      9725      9724      9726
      9725      9724      9727      9726      9724      9727      9678      9728      9729
      9678      9728      9730      9678      9728      9731      9729      9728      9730
      9729      9728      9731      9730      9728      9731      9728      9731      9732
      9728      9731      9733      9728      9731      9734      9732      9731      9733
      9732      9731      9734      9733      9731      9734      9731      9734      9735
      9731      9734      9736      9731      9734      9737      9735      9734      9736
      9735      9734      9737      9736      9734      9737      9734      9737      9738
      9734      9737      9739      9734      9737      9740      9738      9737      9739
      9738      9737      9740      9739      9737      9740      9737      9740      9741
      9737      9740      9742      9737      9740      9743      9741      9740      9742
      9741      9740      9743      9742      9740      9743      9740      9743      9744
      9740      9743      9745      9740      9743      9746      9744      9743      9745
      9744      9743      9746      9745      9743      9746      9743      9746      9747
      9743      9746      9748      9743      9746      9749      9747      9746      9748
      9747      9746      9749      9748      9746      9749      9746      9749      9750
      9746      9749      9751      9746      9749      9752      9750      9749      9751
      9750      9749      9752      9751      9749      9752      9749      9752      9753
      9749      9752      9754      9749      9752      9755      9753      9752      9754
      9753      9752      9755      9754      9752      9755      9752      9755      9756
      9752      9755      9757      9752      9755      9758      9756      9755      9757
      9756      9755      9758      9757      9755      9758      9755      9758      9759
      9755      9758      9760      9755      9758      9761      9759      9758      9760
      9759      9758      9761      9760      9758      9761      9758      9761      9762
      9758      9761      9763      9758      9761      9764      9762      9761      9763
      9762      9761      9764      9763      9761      9764      9761      9764      9765
      9761      9764      9766      9761      9764      9767      9765      9764      9766
      9765      9764      9767      9766      9764      9767      9764      9767      9768
      9764      9767      9769      9764      9767      9770      9768      9767      9769
      9768      9767      9770      9769      9767      9770      9767      9770      9771
      9767      9770      9772      9767      9770      9773      9771      9770      9772
      9771      9770      9773      9772      9770      9773      9770      9773      9774
      9770      9773      9775      9770      9773      9776      9774      9773      9775
      9774      9773      9776      9775      9773      9776      2263      2262      2264
      2263      2262      2265      2263      2262      2266      2264      2262      2265
      2264      2262      2266      2265      2262      2266      2262      2266      2267
      2262      2266      2268      2262      2266      2271      2267      2266      2268
      2267      2266      2271      2268      2266      2271      2266      2268      2269
      2266      2268      2270      2269      2268      2270      2266      2271      2272
      2266      2271      2273      2266      2271      2277      2272      2271      2273
      2272      2271      2277      2273      2271      2277      2275      2274      2276
      2275      2274      2277      2275      2274      2278      2276      2274      2277
      2276      2274      2278      2277      2274      2278      2271      2277      2274
      2274      2278      2279      2278      2279      2280      2278      2279      2281
      2278      2279      2282      2280      2279      2281      2280      2279      2282
      2281      2279      2282      2279      2282      2283      2279      2282      2284
      2279      2282      2290      2283      2282      2284      2283      2282      2290
      2284      2282      2290      2282      2284      2285      2284      2285      2286
      2284      2285      2287      2286      2285      2287      2285      2287      2288
      2285      2287      2289      2285      2287      2299      2288      2287      2289
      2288      2287      2299      2289      2287      2299      2282      2290      2291
      2282      2290      2292      2282      2290      2293      2291      2290      2292
      2291      2290      2293      2292      2290      2293      2290      2293      2294
      2293      2294      2295      2293      2294      2296      2295      2294      2296
      2294      2296      2297      2294      2296      2298      2294      2296      2346
      2297      2296      2298      2297      2296      2346      2298      2296      2346
      2287      2299      2300      2287      2299      2301      2287      2299      2302
      2300      2299      2301      2300      2299      2302      2301      2299      2302
      2299      2302      2303      2299      2302      2304      2299      2302      2305
      2303      2302      2304      2303      2302      2305      2304      2302      2305
      2302      2305      2306      2302      2305      2307      2306      2305      2307
      2305      2307      2308      2305      2307      2309      2308      2307      2309
      2307      2309      2310      2307      2309      2311      2307      2309      2312
      2310      2309      2311      2310      2309      2312      2311      2309      2312
      2309      2312      2313      2309      2312      2314      2313      2312      2314
      2312      2314      2315      2312      2314      2316      2315      2314      2316
      2314      2316      2317      2314      2316      2318      2314      2316      2319
      2317      2316      2318      2317      2316      2319      2318      2316      2319
      2316      2319      2320      2316      2319      2321      2320      2319      2321
      2319      2321      2322      2319      2321      2323      2322      2321      2323
      2321      2323      2324      2321      2323      2325      2321      2323      2326
      2324      2323      2325      2324      2323      2326      2325      2323      2326
      2323      2326      2327      2323      2326      2328      2327      2326      2328
      2326      2328      2329      2326      2328      2330      2329      2328      2330
      2328      2330      2331      2328      2330      2332      2328      2330      2333
      2331      2330      2332      2331      2330      2333      2332      2330      2333
      2330      2333      2334      2330      2333      2335      2330      2333      2336
      2334      2333      2335      2334      2333      2336      2335      2333      2336
      2333      2336      2337      2333      2336      2338      2333      2336      2339
      2337      2336      2338      2337      2336      2339      2338      2336      2339
      2336      2339      2340      2336      2339      2341      2336      2339      2342
      2340      2339      2341      2340      2339      2342      2341      2339      2342
      2339      2342      2343      2339      2342      2344      2339      2342      2345
      2343      2342      2344      2343      2342      2345      2344      2342      2345
      2296      2346      2347      2296      2346      2348      2296      2346      2349
      2347      2346      2348      2347      2346      2349      2348      2346      2349
      2346      2349      2350      2346      2349      2351      2346      2349      2352
      2350      2349      2351      2350      2349      2352      2351      2349      2352
      2349      2352      2353      2349      2352      2354      2349      2352      2355
      2353      2352      2354      2353      2352      2355      2354      2352      2355
      2352      2355      2356      2352      2355      2357      2352      2355      2358
      2356      2355      2357      2356      2355      2358      2357      2355      2358
      2355      2358      2359      2355      2358      2360      2355      2358      2361
      2359      2358      2360      2359      2358      2361      2360      2358      2361
      2358      2361      2362      2358      2361      2363      2358      2361      2364
      2362      2361      2363      2362      2361      2364      2363      2361      2364
      2361      2364      2365      2361      2364      2366      2361      2364      2367
      2365      2364      2366      2365      2364      2367      2366      2364      2367
      2364      2367      2368      2364      2367      2369      2364      2367      2370
      2368      2367      2369      2368      2367      2370      2369      2367      2370
      2367      2370      2371      2367      2370      2372      2367      2370      2373
      2371      2370      2372      2371      2370      2373      2372      2370      2373
      2370      2373      2374      2370      2373      2375      2370      2373      2376
      2374      2373      2375      2374      2373      2376      2375      2373      2376
      2373      2376      2377      2373      2376      2378      2373      2376      2379
      2377      2376      2378      2377      2376      2379      2378      2376      2379
      2376      2379      2380      2376      2379      2381      2376      2379      2382
      2380      2379      2381      2380      2379      2382      2381      2379      2382
      2379      2382      2383      2379      2382      2384      2379      2382      2385
      2383      2382      2384      2383      2382      2385      2384      2382      2385
      2382      2385      2386      2382      2385      2387      2382      2385      2388
      2386      2385      2387      2386      2385      2388      2387      2385      2388
      2385      2388      2389      2385      2388      2390      2385      2388      2391
      2389      2388      2390      2389      2388      2391      2390      2388      2391
      2388      2391      2392      2388      2391      2393      2388      2391      2394
      2392      2391      2393      2392      2391      2394      2393      2391      2394
     22111     22110     22112     22111     22110     22114     22111     22110     22130
     22112     22110     22114     22112     22110     22130     22114     22110     22130
     22110     22112     22113     22110     22114     22115     22110     22114     22116
     22110     22114     22118     22115     22114     22116     22115     22114     22118
     22116     22114     22118     22114     22116     22117     22114     22118     22119
     22114     22118     22120     22114     22118     22122     22119     22118     22120
     22119     22118     22122     22120     22118     22122     22118     22120     22121
     22118     22122     22123     22118     22122     22124     22118     22122     22126
     22123     22122     22124     22123     22122     22126     22124     22122     22126
     22122     22124     22125     22122     22126     22127     22122     22126     22128
     22122     22126     22130     22127     22126     22128     22127     22126     22130
     22128     22126     22130     22126     22128     22129     22110     22130     22126
     22110     22130     22131     22110     22130     22135     22126     22130     22131
     22126     22130     22135     22131     22130     22135     22133     22132     22134
     22133     22132     22135     22133     22132     22136     22134     22132     22135
     22134     22132     22136     22135     22132     22136     22130     22135     22132
     22132     22136     22137     22136     22137     22138     22136     22137     22139
     22136     22137     22140     22138     22137     22139     22138     22137     22140
     22139     22137     22140     22137     22140     22141     22137     22140     22142
     22137     22140     22148     22141     22140     22142     22141     22140     22148
     22142     22140     22148     22140     22142     22143     22142     22143     22144
     22142     22143     22145     22144     22143     22145     22143     22145     22146
     22143     22145     22147     22143     22145     22157     22146     22145     22147
     22146     22145     22157     22147     22145     22157     22140     22148     22149
     22140     22148     22150     22140     22148     22151     22149     22148     22150
     22149     22148     22151     22150     22148     22151     22148     22151     22152
     22151     22152     22153     22151     22152     22154     22153     22152     22154
     22152     22154     22155     22152     22154     22156     22152     22154     22204
     22155     22154     22156     22155     22154     22204     22156     22154     22204
     22145     22157     22158     22145     22157     22159     22145     22157     22160
     22158     22157     22159     22158     22157     22160     22159     22157     22160
     22157     22160     22161     22157     22160     22162     22157     22160     22163
     22161     22160     22162     22161     22160     22163     22162     22160     22163
     22160     22163     22164     22160     22163     22165     22164     22163     22165
     22163     22165     22166     22163     22165     22167     22166     22165     22167
     22165     22167     22168     22165     22167     22169     22165     22167     22170
     22168     22167     22169     22168     22167     22170     22169     22167     22170
     22167     22170     22171     22167     22170     22172     22171     22170     22172
     22170     22172     22173     22170     22172     22174     22173     22172     22174
     22172     22174     22175     22172     22174     22176     22172     22174     22177
     22175     22174     22176     22175     22174     22177     22176     22174     22177
     22174     22177     22178     22174     22177     22179     22178     22177     22179
     22177     22179     22180     22177     22179     22181     22180     22179     22181
     22179     22181     22182     22179     22181     22183     22179     22181     22184
     22182     22181     22183     22182     22181     22184     22183     22181     22184
     22181     22184     22185     22181     22184     22186     22185     22184     22186
     22184     22186     22187     22184     22186     22188     22187     22186     22188
     22186     22188     22189     22186     22188     22190     22186     22188     22191
     22189     22188     22190     22189     22188     22191     22190     22188     22191
     22188     22191     22192     22188     22191     22193     22188     22191     22194
     22192     22191     22193     22192     22191     22194     22193     22191     22194
     22191     22194     22195     22191     22194     22196     22191     22194     22197
     22195     22194     22196     22195     22194     22197     22196     22194     22197
     22194     22197     22198     22194     22197     22199     22194     22197     22200
     22198     22197     22199     22198     22197     22200     22199     22197     22200
     22197     22200     22201     22197     22200     22202     22197     22200     22203
     22201     22200     22202     22201     22200     22203     22202     22200     22203
     22154     22204     22205     22154     22204     22206     22154     22204     22207
     22205     22204     22206     22205     22204     22207     22206     22204     22207
     22204     22207     22208     22204     22207     22209     22204     22207     22210
     22208     22207     22209     22208     22207     22210     22209     22207     22210
     22207     22210     22211     22207     22210     22212     22207     22210     22213
     22211     22210     22212     22211     22210     22213     22212     22210     22213
     22210     22213     22214     22210     22213     22215     22210     22213     22216
     22214     22213     22215     22214     22213     22216     22215     22213     22216
     22213     22216     22217     22213     22216     22218     22213     22216     22219
     22217     22216     22218     22217     22216     22219     22218     22216     22219
     22216     22219     22220     22216     22219     22221     22216     22219     22222
     22220     22219     22221     22220     22219     22222     22221     22219     22222
     22219     22222     22223     22219     22222     22224     22219     22222     22225
     22223     22222     22224     22223     22222     22225     22224     22222     22225
     22222     22225     22226     22222     22225     22227     22222     22225     22228
     22226     22225     22227     22226     22225     22228     22227     22225     22228
     22225     22228     22229     22225     22228     22230     22225     22228     22231
     22229     22228     22230     22229     22228     22231     22230     22228     22231
     22228     22231     22232     22228     22231     22233     22228     22231     22234
     22232     22231     22233     22232     22231     22234     22233     22231     22234
     22231     22234     22235     22231     22234     22236     22231     22234     22237
     22235     22234     22236     22235     22234     22237     22236     22234     22237
     22234     22237     22238     22234     22237     22239     22234     22237     22240
     22238     22237     22239     22238     22237     22240     22239     22237     22240
     22237     22240     22241     22237     22240     22242     22237     22240     22243
     22241     22240     22242     22241     22240     22243     22242     22240     22243
     22240     22243     22244     22240     22243     22245     22240     22243     22246
     22244     22243     22245     22244     22243     22246     22245     22243     22246
     22243     22246     22247     22243     22246     22248     22243     22246     22249
     22247     22246     22248     22247     22246     22249     22248     22246     22249
     22246     22249     22250     22246     22249     22251     22246     22249     22252
     22250     22249     22251     22250     22249     22252     22251     22249     22252
     18442     18441     18443     18442     18441     18444     18442     18441     18445
     18443     18441     18444     18443     18441     18445     18444     18441     18445
     18441     18445     18446     18441     18445     18447     18441     18445     18448
     18446     18445     18447     18446     18445     18448     18447     18445     18448
     18445     18448     18449     18445     18448     18450     18445     18448     18454
     18449     18448     18450     18449     18448     18454     18450     18448     18454
     18452     18451     18453     18452     18451     18454     18452     18451     18455
     18453     18451     18454     18453     18451     18455     18454     18451     18455
     18448     18454     18451     18451     18455     18456     18455     18456     18457
     18455     18456     18458     18455     18456     18459     18457     18456     18458
     18457     18456     18459     18458     18456     18459     18456     18459     18460
     18456     18459     18461     18456     18459     18467     18460     18459     18461
     18460     18459     18467     18461     18459     18467     18459     18461     18462
     18461     18462     18463     18461     18462     18464     18463     18462     18464
     18462     18464     18465     18462     18464     18466     18462     18464     18476
     18465     18464     18466     18465     18464     18476     18466     18464     18476
     18459     18467     18468     18459     18467     18469     18459     18467     18470
     18468     18467     18469     18468     18467     18470     18469     18467     18470
     18467     18470     18471     18470     18471     18472     18470     18471     18473
     18472     18471     18473     18471     18473     18474     18471     18473     18475
     18471     18473     18523     18474     18473     18475     18474     18473     18523
     18475     18473     18523     18464     18476     18477     18464     18476     18478
     18464     18476     18479     18477     18476     18478     18477     18476     18479
     18478     18476     18479     18476     18479     18480     18476     18479     18481
     18476     18479     18482     18480     18479     18481     18480     18479     18482
     18481     18479     18482     18479     18482     18483     18479     18482     18484
     18483     18482     18484     18482     18484     18485     18482     18484     18486
     18485     18484     18486     18484     18486     18487     18484     18486     18488
     18484     18486     18489     18487     18486     18488     18487     18486     18489
     18488     18486     18489     18486     18489     18490     18486     18489     18491
     18490     18489     18491     18489     18491     18492     18489     18491     18493
     18492     18491     18493     18491     18493     18494     18491     18493     18495
     18491     18493     18496     18494     18493     18495     18494     18493     18496
     18495     18493     18496     18493     18496     18497     18493     18496     18498
     18497     18496     18498     18496     18498     18499     18496     18498     18500
     18499     18498     18500     18498     18500     18501     18498     18500     18502
     18498     18500     18503     18501     18500     18502     18501     18500     18503
     18502     18500     18503     18500     18503     18504     18500     18503     18505
     18504     18503     18505     18503     18505     18506     18503     18505     18507
     18506     18505     18507     18505     18507     18508     18505     18507     18509
     18505     18507     18510     18508     18507     18509     18508     18507     18510
     18509     18507     18510     18507     18510     18511     18507     18510     18512
     18507     18510     18513     18511     18510     18512     18511     18510     18513
     18512     18510     18513     18510     18513     18514     18510     18513     18515
     18510     18513     18516     18514     18513     18515     18514     18513     18516
     18515     18513     18516     18513     18516     18517     18513     18516     18518
     18513     18516     18519     18517     18516     18518     18517     18516     18519
     18518     18516     18519     18516     18519     18520     18516     18519     18521
     18516     18519     18522     18520     18519     18521     18520     18519     18522
     18521     18519     18522     18473     18523     18524     18473     18523     18525
     18473     18523     18526     18524     18523     18525     18524     18523     18526
     18525     18523     18526     18523     18526     18527     18523     18526     18528
     18523     18526     18529     18527     18526     18528     18527     18526     18529
     18528     18526     18529     18526     18529     18530     18526     18529     18531
     18526     18529     18532     18530     18529     18531     18530     18529     18532
     18531     18529     18532     18529     18532     18533     18529     18532     18534
     18529     18532     18535     18533     18532     18534     18533     18532     18535
     18534     18532     18535     18532     18535     18536     18532     18535     18537
     18532     18535     18538     18536     18535     18537     18536     18535     18538
     18537     18535     18538     18535     18538     18539     18535     18538     18540
     18535     18538     18541     18539     18538     18540     18539     18538     18541
     18540     18538     18541     18538     18541     18542     18538     18541     18543
     18538     18541     18544     18542     18541     18543     18542     18541     18544
     18543     18541     18544     18541     18544     18545     18541     18544     18546
     18541     18544     18547     18545     18544     18546     18545     18544     18547
     18546     18544     18547     18544     18547     18548     18544     18547     18549
     18544     18547     18550     18548     18547     18549     18548     18547     18550
     18549     18547     18550     18547     18550     18551     18547     18550     18552
     18547     18550     18553     18551     18550     18552     18551     18550     18553
     18552     18550     18553     18550     18553     18554     18550     18553     18555
     18550     18553     18556     18554     18553     18555     18554     18553     18556
     18555     18553     18556     18553     18556     18557     18553     18556     18558
     18553     18556     18559     18557     18556     18558     18557     18556     18559
     18558     18556     18559     18556     18559     18560     18556     18559     18561
     18556     18559     18562     18560     18559     18561     18560     18559     18562
     18561     18559     18562     18559     18562     18563     18559     18562     18564
     18559     18562     18565     18563     18562     18564     18563     18562     18565
     18564     18562     18565     18562     18565     18566     18562     18565     18567
     18562     18565     18568     18566     18565     18567     18566     18565     18568
     18567     18565     18568     18565     18568     18569     18565     18568     18570
     18565     18568     18571     18569     18568     18570     18569     18568     18571
     18570     18568     18571     18573     18572     18574     18573     18572     18575
     18573     18572     18576     18574     18572     18575     18574     18572     18576
     18575     18572     18576     18572     18576     18577     18572     18576     18578
     18572     18576     18579     18577     18576     18578     18577     18576     18579
     18578     18576     18579     18576     18579     18580     18576     18579     18581
     18576     18579     18585     18580     18579     18581     18580     18579     18585
     18581     18579     18585     18583     18582     18584     18583     18582     18585
     18583     18582     18586     18584     18582     18585     18584     18582     18586
     18585     18582     18586     18579     18585     18582     18582     18586     18587
     18586     18587     18588     18586     18587     18589     18586     18587     18590
     18588     18587     18589     18588     18587     18590     18589     18587     18590
     18587     18590     18591     18587     18590     18592     18587     18590     18598
     18591     18590     18592     18591     18590     18598     18592     18590     18598
     18590     18592     18593     18592     18593     18594     18592     18593     18595
     18594     18593     18595     18593     18595     18596     18593     18595     18597
     18593     18595     18607     18596     18595     18597     18596     18595     18607
     18597     18595     18607     18590     18598     18599     18590     18598     18600
     18590     18598     18601     18599     18598     18600     18599     18598     18601
     18600     18598     18601     18598     18601     18602     18601     18602     18603
     18601     18602     18604     18603     18602     18604     18602     18604     18605
     18602     18604     18606     18602     18604     18654     18605     18604     18606
     18605     18604     18654     18606     18604     18654     18595     18607     18608
     18595     18607     18609     18595     18607     18610     18608     18607     18609
     18608     18607     18610     18609     18607     18610     18607     18610     18611
     18607     18610     18612     18607     18610     18613     18611     18610     18612
     18611     18610     18613     18612     18610     18613     18610     18613     18614
     18610     18613     18615     18614     18613     18615     18613     18615     18616
     18613     18615     18617     18616     18615     18617     18615     18617     18618
     18615     18617     18619     18615     18617     18620     18618     18617     18619
     18618     18617     18620     18619     18617     18620     18617     18620     18621
     18617     18620     18622     18621     18620     18622     18620     18622     18623
     18620     18622     18624     18623     18622     18624     18622     18624     18625
     18622     18624     18626     18622     18624     18627     18625     18624     18626
     18625     18624     18627     18626     18624     18627     18624     18627     18628
     18624     18627     18629     18628     18627     18629     18627     18629     18630
     18627     18629     18631     18630     18629     18631     18629     18631     18632
     18629     18631     18633     18629     18631     18634     18632     18631     18633
     18632     18631     18634     18633     18631     18634     18631     18634     18635
     18631     18634     18636     18635     18634     18636     18634     18636     18637
     18634     18636     18638     18637     18636     18638     18636     18638     18639
     18636     18638     18640     18636     18638     18641     18639     18638     18640
     18639     18638     18641     18640     18638     18641     18638     18641     18642
     18638     18641     18643     18638     18641     18644     18642     18641     18643
     18642     18641     18644     18643     18641     18644     18641     18644     18645
     18641     18644     18646     18641     18644     18647     18645     18644     18646
     18645     18644     18647     18646     18644     18647     18644     18647     18648
     18644     18647     18649     18644     18647     18650     18648     18647     18649
     18648     18647     18650     18649     18647     18650     18647     18650     18651
     18647     18650     18652     18647     18650     18653     18651     18650     18652
     18651     18650     18653     18652     18650     18653     18604     18654     18655
     18604     18654     18656     18604     18654     18657     18655     18654     18656
     18655     18654     18657     18656     18654     18657     18654     18657     18658
     18654     18657     18659     18654     18657     18660     18658     18657     18659
     18658     18657     18660     18659     18657     18660     18657     18660     18661
     18657     18660     18662     18657     18660     18663     18661     18660     18662
     18661     18660     18663     18662     18660     18663     18660     18663     18664
     18660     18663     18665     18660     18663     18666     18664     18663     18665
     18664     18663     18666     18665     18663     18666     18663     18666     18667
     18663     18666     18668     18663     18666     18669     18667     18666     18668
     18667     18666     18669     18668     18666     18669     18666     18669     18670
     18666     18669     18671     18666     18669     18672     18670     18669     18671
     18670     18669     18672     18671     18669     18672     18669     18672     18673
     18669     18672     18674     18669     18672     18675     18673     18672     18674
     18673     18672     18675     18674     18672     18675     18672     18675     18676
     18672     18675     18677     18672     18675     18678     18676     18675     18677
     18676     18675     18678     18677     18675     18678     18675     18678     18679
     18675     18678     18680     18675     18678     18681     18679     18678     18680
     18679     18678     18681     18680     18678     18681     18678     18681     18682
     18678     18681     18683     18678     18681     18684     18682     18681     18683
     18682     18681     18684     18683     18681     18684     18681     18684     18685
     18681     18684     18686     18681     18684     18687     18685     18684     18686
     18685     18684     18687     18686     18684     18687     18684     18687     18688
     18684     18687     18689     18684     18687     18690     18688     18687     18689
     18688     18687     18690     18689     18687     18690     18687     18690     18691
     18687     18690     18692     18687     18690     18693     18691     18690     18692
     18691     18690     18693     18692     18690     18693     18690     18693     18694
     18690     18693     18695     18690     18693     18696     18694     18693     18695
     18694     18693     18696     18695     18693     18696     18693     18696     18697
     18693     18696     18698     18693     18696     18699     18697     18696     18698
     18697     18696     18699     18698     18696     18699     18696     18699     18700
     18696     18699     18701     18696     18699     18702     18700     18699     18701
     18700     18699     18702     18701     18699     18702     14905     14904     14909
     14905     14904     14913     14905     14904     14917     14909     14904     14913
     14909     14904     14917     14913     14904     14917     14904     14905     14906
     14904     14905     14907     14904     14905     14908     14906     14905     14907
     14906     14905     14908     14907     14905     14908     14904     14909     14910
     14904     14909     14911     14904     14909     14912     14910     14909     14911
     14910     14909     14912     14911     14909     14912     14904     14913     14914
     14904     14913     14915     14904     14913     14916     14914     14913     14915
     14914     14913     14916     14915     14913     14916     14904     14917     14918
     14904     14917     14919     14904     14917     14920     14918     14917     14919
     14918     14917     14920     14919     14917     14920     14917     14920     14921
     14917     14920     14922     14917     14920     14927     14921     14920     14922
     14921     14920     14927     14922     14920     14927     14924     14923     14925
     14924     14923     14926     14924     14923     14927     14925     14923     14926
     14925     14923     14927     14926     14923     14927     14923     14926     14928
     14920     14927     14923     14926     14928     14929     14926     14928     14930
     14926     14928     14933     14929     14928     14930     14929     14928     14933
     14930     14928     14933     14932     14931     14933     14932     14931     14983
     14933     14931     14983     14928     14933     14931     14928     14933     14934
     14928     14933     14935     14931     14933     14934     14931     14933     14935
     14934     14933     14935     14933     14935     14936     14933     14935     14937
     14933     14935     14939     14936     14935     14937     14936     14935     14939
     14937     14935     14939     14935     14937     14938     14935     14939     14940
     14935     14939     14941     14940     14939     14941     14939     14941     14942
     14939     14941     14943     14942     14941     14943     14941     14943     14944
     14941     14943     14945     14941     14943     14946     14944     14943     14945
     14944     14943     14946     14945     14943     14946     14943     14946     14947
     14943     14946     14948     14943     14946     14949     14947     14946     14948
     14947     14946     14949     14948     14946     14949     14946     14949     14950
     14946     14949     14951     14946     14949     14952     14950     14949     14951
     14950     14949     14952     14951     14949     14952     14949     14952     14953
     14949     14952     14954     14949     14952     14955     14953     14952     14954
     14953     14952     14955     14954     14952     14955     14952     14955     14956
     14952     14955     14957     14952     14955     14958     14956     14955     14957
     14956     14955     14958     14957     14955     14958     14955     14958     14959
     14955     14958     14960     14955     14958     14961     14959     14958     14960
     14959     14958     14961     14960     14958     14961     14958     14961     14962
     14958     14961     14963     14958     14961     14964     14962     14961     14963
     14962     14961     14964     14963     14961     14964     14961     14964     14965
     14961     14964     14966     14961     14964     14967     14965     14964     14966
     14965     14964     14967     14966     14964     14967     14964     14967     14968
     14964     14967     14969     14964     14967     14970     14968     14967     14969
     14968     14967     14970     14969     14967     14970     14967     14970     14971
     14967     14970     14972     14967     14970     14973     14971     14970     14972
     14971     14970     14973     14972     14970     14973     14970     14973     14974
     14970     14973     14975     14970     14973     14976     14974     14973     14975
     14974     14973     14976     14975     14973     14976     14973     14976     14977
     14973     14976     14978     14973     14976     14979     14977     14976     14978
     14977     14976     14979     14978     14976     14979     14976     14979     14980
     14976     14979     14981     14976     14979     14982     14980     14979     14981
     14980     14979     14982     14981     14979     14982     14931     14983     14984
     14931     14983     14985     14984     14983     14985     14983     14985     14986
     14983     14985     14987     14983     14985     14988     14986     14985     14987
     14986     14985     14988     14987     14985     14988     14985     14988     14989
     14985     14988     14990     14985     14988     14991     14989     14988     14990
     14989     14988     14991     14990     14988     14991     14988     14991     14992
     14988     14991     14993     14988     14991     14994     14992     14991     14993
     14992     14991     14994     14993     14991     14994     14991     14994     14995
     14991     14994     14996     14991     14994     14997     14995     14994     14996
     14995     14994     14997     14996     14994     14997     14994     14997     14998
     14994     14997     14999     14994     14997     15000     14998     14997     14999
     14998     14997     15000     14999     14997     15000     14997     15000     15001
     14997     15000     15002     14997     15000     15003     15001     15000     15002
     15001     15000     15003     15002     15000     15003     15000     15003     15004
     15000     15003     15005     15000     15003     15006     15004     15003     15005
     15004     15003     15006     15005     15003     15006     15003     15006     15007
     15003     15006     15008     15007     15006     15008     15006     15008     15009
     15006     15008     15010     15009     15008     15010     15008     15010     15011
     15008     15010     15012     15008     15010     15013     15011     15010     15012
     15011     15010     15013     15012     15010     15013     15010     15013     15014
     15010     15013     15015     15010     15013     15016     15014     15013     15015
     15014     15013     15016     15015     15013     15016     15013     15016     15017
     15013     15016     15018     15013     15016     15019     15017     15016     15018
     15017     15016     15019     15018     15016     15019     15016     15019     15020
     15016     15019     15021     15016     15019     15022     15020     15019     15021
     15020     15019     15022     15021     15019     15022     15019     15022     15023
     15019     15022     15024     15019     15022     15025     15023     15022     15024
     15023     15022     15025     15024     15022     15025     15022     15025     15026
     15022     15025     15027     15022     15025     15028     15026     15025     15027
     15026     15025     15028     15027     15025     15028     15025     15028     15029
     15025     15028     15030     15025     15028     15031     15029     15028     15030
     15029     15028     15031     15030     15028     15031     15028     15031     15032
     15028     15031     15033     15028     15031     15034     15032     15031     15033
     15032     15031     15034     15033     15031     15034     15036     15035     15040
     15036     15035     15044     15036     15035     15048     15040     15035     15044
     15040     15035     15048     15044     15035     15048     15035     15036     15037
     15035     15036     15038     15035     15036     15039     15037     15036     15038
     15037     15036     15039     15038     15036     15039     15035     15040     15041
     15035     15040     15042     15035     15040     15043     15041     15040     15042
     15041     15040     15043     15042     15040     15043     15035     15044     15045
     15035     15044     15046     15035     15044     15047     15045     15044     15046
     15045     15044     15047     15046     15044     15047     15035     15048     15049
     15035     15048     15050     15035     15048     15051     15049     15048     15050
     15049     15048     15051     15050     15048     15051     15048     15051     15052
     15048     15051     15053     15048     15051     15058     15052     15051     15053
     15052     15051     15058     15053     15051     15058     15055     15054     15056
     15055     15054     15057     15055     15054     15058     15056     15054     15057
     15056     15054     15058     15057     15054     15058     15054     15057     15059
     15051     15058     15054     15057     15059     15060     15057     15059     15061
     15057     15059     15064     15060     15059     15061     15060     15059     15064
     15061     15059     15064     15063     15062     15064     15063     15062     15114
     15064     15062     15114     15059     15064     15062     15059     15064     15065
     15059     15064     15066     15062     15064     15065     15062     15064     15066
     15065     15064     15066     15064     15066     15067     15064     15066     15068
     15064     15066     15070     15067     15066     15068     15067     15066     15070
     15068     15066     15070     15066     15068     15069     15066     15070     15071
     15066     15070     15072     15071     15070     15072     15070     15072     15073
     15070     15072     15074     15073     15072     15074     15072     15074     15075
     15072     15074     15076     15072     15074     15077     15075     15074     15076
     15075     15074     15077     15076     15074     15077     15074     15077     15078
     15074     15077     15079     15074     15077     15080     15078     15077     15079
     15078     15077     15080     15079     15077     15080     15077     15080     15081
     15077     15080     15082     15077     15080     15083     15081     15080     15082
     15081     15080     15083     15082     15080     15083     15080     15083     15084
     15080     15083     15085     15080     15083     15086     15084     15083     15085
     15084     15083     15086     15085     15083     15086     15083     15086     15087
     15083     15086     15088     15083     15086     15089     15087     15086     15088
     15087     15086     15089     15088     15086     15089     15086     15089     15090
     15086     15089     15091     15086     15089     15092     15090     15089     15091
     15090     15089     15092     15091     15089     15092     15089     15092     15093
     15089     15092     15094     15089     15092     15095     15093     15092     15094
     15093     15092     15095     15094     15092     15095     15092     15095     15096
     15092     15095     15097     15092     15095     15098     15096     15095     15097
     15096     15095     15098     15097     15095     15098     15095     15098     15099
     15095     15098     15100     15095     15098     15101     15099     15098     15100
     15099     15098     15101     15100     15098     15101     15098     15101     15102
     15098     15101     15103     15098     15101     15104     15102     15101     15103
     15102     15101     15104     15103     15101     15104     15101     15104     15105
     15101     15104     15106     15101     15104     15107     15105     15104     15106
     15105     15104     15107     15106     15104     15107     15104     15107     15108
     15104     15107     15109     15104     15107     15110     15108     15107     15109
     15108     15107     15110     15109     15107     15110     15107     15110     15111
     15107     15110     15112     15107     15110     15113     15111     15110     15112
     15111     15110     15113     15112     15110     15113     15062     15114     15115
     15062     15114     15116     15115     15114     15116     15114     15116     15117
     15114     15116     15118     15114     15116     15119     15117     15116     15118
     15117     15116     15119     15118     15116     15119     15116     15119     15120
     15116     15119     15121     15116     15119     15122     15120     15119     15121
     15120     15119     15122     15121     15119     15122     15119     15122     15123
     15119     15122     15124     15119     15122     15125     15123     15122     15124
     15123     15122     15125     15124     15122     15125     15122     15125     15126
     15122     15125     15127     15122     15125     15128     15126     15125     15127
     15126     15125     15128     15127     15125     15128     15125     15128     15129
     15125     15128     15130     15125     15128     15131     15129     15128     15130
     15129     15128     15131     15130     15128     15131     15128     15131     15132
     15128     15131     15133     15128     15131     15134     15132     15131     15133
     15132     15131     15134     15133     15131     15134     15131     15134     15135
     15131     15134     15136     15131     15134     15137     15135     15134     15136
     15135     15134     15137     15136     15134     15137     15134     15137     15138
     15134     15137     15139     15138     15137     15139     15137     15139     15140
     15137     15139     15141     15140     15139     15141     15139     15141     15142
     15139     15141     15143     15139     15141     15144     15142     15141     15143
     15142     15141     15144     15143     15141     15144     15141     15144     15145
     15141     15144     15146     15141     15144     15147     15145     15144     15146
     15145     15144     15147     15146     15144     15147     15144     15147     15148
     15144     15147     15149     15144     15147     15150     15148     15147     15149
     15148     15147     15150     15149     15147     15150     15147     15150     15151
     15147     15150     15152     15147     15150     15153     15151     15150     15152
     15151     15150     15153     15152     15150     15153     15150     15153     15154
     15150     15153     15155     15150     15153     15156     15154     15153     15155
     15154     15153     15156     15155     15153     15156     15153     15156     15157
     15153     15156     15158     15153     15156     15159     15157     15156     15158
     15157     15156     15159     15158     15156     15159     15156     15159     15160
     15156     15159     15161     15156     15159     15162     15160     15159     15161
     15160     15159     15162     15161     15159     15162     15159     15162     15163
     15159     15162     15164     15159     15162     15165     15163     15162     15164
     15163     15162     15165     15164     15162     15165      5844      5843      5845
      5844      5843      5847      5844      5843      5889      5845      5843      5847
      5845      5843      5889      5847      5843      5889      5843      5845      5846
      5843      5847      5848      5843      5847      5849      5843      5847      5850
      5848      5847      5849      5848      5847      5850      5849      5847      5850
      5847      5850      5851      5847      5850      5881      5851      5850      5881
      5850      5851      5852      5850      5851      5853      5852      5851      5853
      5851      5853      5854      5851      5853      5855      5851      5853      5856
      5854      5853      5855      5854      5853      5856      5855      5853      5856
      5853      5856      5857      5853      5856      5858      5853      5856      5879
      5857      5856      5858      5857      5856      5879      5858      5856      5879
      5856      5858      5859      5856      5858      5860      5856      5858      5868
      5859      5858      5860      5859      5858      5868      5860      5858      5868
      5858      5860      5861      5858      5860      5862      5858      5860      5863
      5861      5860      5862      5861      5860      5863      5862      5860      5863
      5860      5863      5864      5860      5863      5865      5860      5863      5866
      5864      5863      5865      5864      5863      5866      5865      5863      5866
      5863      5866      5867      5863      5866      5868      5863      5866      5892
      5867      5866      5868      5867      5866      5892      5868      5866      5892
      5858      5868      5866      5858      5868      5869      5858      5868      5873
      5866      5868      5869      5866      5868      5873      5869      5868      5873
      5868      5869      5870      5868      5869      5871      5868      5869      5872
      5870      5869      5871      5870      5869      5872      5871      5869      5872
      5868      5873      5874      5868      5873      5875      5868      5873      5876
      5874      5873      5875      5874      5873      5876      5875      5873      5876
      5873      5876      5877      5873      5876      5878      5873      5876      5879
      5877      5876      5878      5877      5876      5879      5878      5876      5879
      5856      5879      5876      5856      5879      5880      5856      5879      5881
      5876      5879      5880      5876      5879      5881      5880      5879      5881
      5850      5881      5879      5850      5881      5882      5850      5881      5886
      5879      5881      5882      5879      5881      5886      5882      5881      5886
      5881      5882      5883      5881      5882      5884      5881      5882      5885
      5883      5882      5884      5883      5882      5885      5884      5882      5885
      5881      5886      5887      5881      5886      5888      5881      5886      5889
      5887      5886      5888      5887      5886      5889      5888      5886      5889
      5843      5889      5886      5843      5889      5890      5843      5889      5891
      5886      5889      5890      5886      5889      5891      5890      5889      5891
      5866      5892      5893      5866      5892      5894      5866      5892      5898
      5893      5892      5894      5893      5892      5898      5894      5892      5898
      5892      5894      5895      5892      5894      5896      5892      5894      5897
      5895      5894      5896      5895      5894      5897      5896      5894      5897
      5892      5898      5899      5892      5898      5900      5892      5898      5901
      5899      5898      5900      5899      5898      5901      5900      5898      5901
      5898      5901      5902      5898      5901      5903      5898      5901      5904
      5902      5901      5903      5902      5901      5904      5903      5901      5904
      5901      5904      5905      5901      5904      5906      5901      5904      5907
      5905      5904      5906      5905      5904      5907      5906      5904      5907
      5904      5907      5908      5904      5907      5909      5904      5907      5913
      5908      5907      5909      5908      5907      5913      5909      5907      5913
      5907      5909      5910      5907      5909      5911      5907      5909      5912
      5910      5909      5911      5910      5909      5912      5911      5909      5912
      5907      5913      5914      5907      5913      5915      5907      5913      5916
      5914      5913      5915      5914      5913      5916      5915      5913      5916
     18704     18703     18705     18704     18703     18706     18704     18703     18707
     18705     18703     18706     18705     18703     18707     18706     18703     18707
     18703     18707     18708     18703     18707     18709     18703     18707     18710
     18708     18707     18709     18708     18707     18710     18709     18707     18710
     18707     18710     18711     18707     18710     18712     18707     18710     18716
     18711     18710     18712     18711     18710     18716     18712     18710     18716
     18714     18713     18715     18714     18713     18716     18714     18713     18717
     18715     18713     18716     18715     18713     18717     18716     18713     18717
     18710     18716     18713     18713     18717     18718     18717     18718     18719
     18717     18718     18720     18717     18718     18721     18719     18718     18720
     18719     18718     18721     18720     18718     18721     18718     18721     18722
     18718     18721     18723     18718     18721     18729     18722     18721     18723
     18722     18721     18729     18723     18721     18729     18721     18723     18724
     18723     18724     18725     18723     18724     18726     18725     18724     18726
     18724     18726     18727     18724     18726     18728     18724     18726     18738
     18727     18726     18728     18727     18726     18738     18728     18726     18738
     18721     18729     18730     18721     18729     18731     18721     18729     18732
     18730     18729     18731     18730     18729     18732     18731     18729     18732
     18729     18732     18733     18732     18733     18734     18732     18733     18735
     18734     18733     18735     18733     18735     18736     18733     18735     18737
     18733     18735     18785     18736     18735     18737     18736     18735     18785
     18737     18735     18785     18726     18738     18739     18726     18738     18740
     18726     18738     18741     18739     18738     18740     18739     18738     18741
     18740     18738     18741     18738     18741     18742     18738     18741     18743
     18738     18741     18744     18742     18741     18743     18742     18741     18744
     18743     18741     18744     18741     18744     18745     18741     18744     18746
     18745     18744     18746     18744     18746     18747     18744     18746     18748
     18747     18746     18748     18746     18748     18749     18746     18748     18750
     18746     18748     18751     18749     18748     18750     18749     18748     18751
     18750     18748     18751     18748     18751     18752     18748     18751     18753
     18752     18751     18753     18751     18753     18754     18751     18753     18755
     18754     18753     18755     18753     18755     18756     18753     18755     18757
     18753     18755     18758     18756     18755     18757     18756     18755     18758
     18757     18755     18758     18755     18758     18759     18755     18758     18760
     18759     18758     18760     18758     18760     18761     18758     18760     18762
     18761     18760     18762     18760     18762     18763     18760     18762     18764
     18760     18762     18765     18763     18762     18764     18763     18762     18765
     18764     18762     18765     18762     18765     18766     18762     18765     18767
     18766     18765     18767     18765     18767     18768     18765     18767     18769
     18768     18767     18769     18767     18769     18770     18767     18769     18771
     18767     18769     18772     18770     18769     18771     18770     18769     18772
     18771     18769     18772     18769     18772     18773     18769     18772     18774
     18769     18772     18775     18773     18772     18774     18773     18772     18775
     18774     18772     18775     18772     18775     18776     18772     18775     18777
     18772     18775     18778     18776     18775     18777     18776     18775     18778
     18777     18775     18778     18775     18778     18779     18775     18778     18780
     18775     18778     18781     18779     18778     18780     18779     18778     18781
     18780     18778     18781     18778     18781     18782     18778     18781     18783
     18778     18781     18784     18782     18781     18783     18782     18781     18784
     18783     18781     18784     18735     18785     18786     18735     18785     18787
     18735     18785     18788     18786     18785     18787     18786     18785     18788
     18787     18785     18788     18785     18788     18789     18785     18788     18790
     18785     18788     18791     18789     18788     18790     18789     18788     18791
     18790     18788     18791     18788     18791     18792     18788     18791     18793
     18788     18791     18794     18792     18791     18793     18792     18791     18794
     18793     18791     18794     18791     18794     18795     18791     18794     18796
     18791     18794     18797     18795     18794     18796     18795     18794     18797
     18796     18794     18797     18794     18797     18798     18794     18797     18799
     18794     18797     18800     18798     18797     18799     18798     18797     18800
     18799     18797     18800     18797     18800     18801     18797     18800     18802
     18797     18800     18803     18801     18800     18802     18801     18800     18803
     18802     18800     18803     18800     18803     18804     18800     18803     18805
     18800     18803     18806     18804     18803     18805     18804     18803     18806
     18805     18803     18806     18803     18806     18807     18803     18806     18808
     18803     18806     18809     18807     18806     18808     18807     18806     18809
     18808     18806     18809     18806     18809     18810     18806     18809     18811
     18806     18809     18812     18810     18809     18811     18810     18809     18812
     18811     18809     18812     18809     18812     18813     18809     18812     18814
     18809     18812     18815     18813     18812     18814     18813     18812     18815
     18814     18812     18815     18812     18815     18816     18812     18815     18817
     18812     18815     18818     18816     18815     18817     18816     18815     18818
     18817     18815     18818     18815     18818     18819     18815     18818     18820
     18815     18818     18821     18819     18818     18820     18819     18818     18821
     18820     18818     18821     18818     18821     18822     18818     18821     18823
     18818     18821     18824     18822     18821     18823     18822     18821     18824
     18823     18821     18824     18821     18824     18825     18821     18824     18826
     18821     18824     18827     18825     18824     18826     18825     18824     18827
     18826     18824     18827     18824     18827     18828     18824     18827     18829
     18824     18827     18830     18828     18827     18829     18828     18827     18830
     18829     18827     18830     18827     18830     18831     18827     18830     18832
     18827     18830     18833     18831     18830     18832     18831     18830     18833
     18832     18830     18833      5918      5917      5919      5918      5917      5921
      5918      5917      5963      5919      5917      5921      5919      5917      5963
      5921      5917      5963      5917      5919      5920      5917      5921      5922
      5917      5921      5923      5917      5921      5924      5922      5921      5923
      5922      5921      5924      5923      5921      5924      5921      5924      5925
      5921      5924      5955      5925      5924      5955      5924      5925      5926
      5924      5925      5927      5926      5925      5927      5925      5927      5928
      5925      5927      5929      5925      5927      5930      5928      5927      5929
      5928      5927      5930      5929      5927      5930      5927      5930      5931
      5927      5930      5932      5927      5930      5953      5931      5930      5932
      5931      5930      5953      5932      5930      5953      5930      5932      5933
      5930      5932      5934      5930      5932      5942      5933      5932      5934
      5933      5932      5942      5934      5932      5942      5932      5934      5935
      5932      5934      5936      5932      5934      5937      5935      5934      5936
      5935      5934      5937      5936      5934      5937      5934      5937      5938
      5934      5937      5939      5934      5937      5940      5938      5937      5939
      5938      5937      5940      5939      5937      5940      5937      5940      5941
      5937      5940      5942      5937      5940      5966      5941      5940      5942
      5941      5940      5966      5942      5940      5966      5932      5942      5940
      5932      5942      5943      5932      5942      5947      5940      5942      5943
      5940      5942      5947      5943      5942      5947      5942      5943      5944
      5942      5943      5945      5942      5943      5946      5944      5943      5945
      5944      5943      5946      5945      5943      5946      5942      5947      5948
      5942      5947      5949      5942      5947      5950      5948      5947      5949
      5948      5947      5950      5949      5947      5950      5947      5950      5951
      5947      5950      5952      5947      5950      5953      5951      5950      5952
      5951      5950      5953      5952      5950      5953      5930      5953      5950
      5930      5953      5954      5930      5953      5955      5950      5953      5954
      5950      5953      5955      5954      5953      5955      5924      5955      5953
      5924      5955      5956      5924      5955      5960      5953      5955      5956
      5953      5955      5960      5956      5955      5960      5955      5956      5957
      5955      5956      5958      5955      5956      5959      5957      5956      5958
      5957      5956      5959      5958      5956      5959      5955      5960      5961
      5955      5960      5962      5955      5960      5963      5961      5960      5962
      5961      5960      5963      5962      5960      5963      5917      5963      5960
      5917      5963      5964      5917      5963      5965      5960      5963      5964
      5960      5963      5965      5964      5963      5965      5940      5966      5967
      5940      5966      5968      5940      5966      5972      5967      5966      5968
      5967      5966      5972      5968      5966      5972      5966      5968      5969
      5966      5968      5970      5966      5968      5971      5969      5968      5970
      5969      5968      5971      5970      5968      5971      5966      5972      5973
      5966      5972      5974      5966      5972      5975      5973      5972      5974
      5973      5972      5975      5974      5972      5975      5972      5975      5976
      5972      5975      5977      5972      5975      5978      5976      5975      5977
      5976      5975      5978      5977      5975      5978      5975      5978      5979
      5975      5978      5980      5975      5978      5981      5979      5978      5980
      5979      5978      5981      5980      5978      5981      5978      5981      5982
      5978      5981      5983      5978      5981      5987      5982      5981      5983
      5982      5981      5987      5983      5981      5987      5981      5983      5984
      5981      5983      5985      5981      5983      5986      5984      5983      5985
      5984      5983      5986      5985      5983      5986      5981      5987      5988
      5981      5987      5989      5981      5987      5990      5988      5987      5989
      5988      5987      5990      5989      5987      5990     21548     21547     21551
     21548     21547     21555     21548     21547     21559     21551     21547     21555
     21551     21547     21559     21555     21547     21559     21547     21548     21549
     21547     21548     21550     21547     21548     21563     21549     21548     21550
     21549     21548     21563     21550     21548     21563     21547     21551     21552
     21547     21551     21553     21547     21551     21554     21552     21551     21553
     21552     21551     21554     21553     21551     21554     21547     21555     21556
     21547     21555     21557     21547     21555     21558     21556     21555     21557
     21556     21555     21558     21557     21555     21558     21547     21559     21560
     21547     21559     21561     21547     21559     21562     21560     21559     21561
     21560     21559     21562     21561     21559     21562     21548     21563     21564
     21548     21563     21565     21548     21563     21569     21564     21563     21565
     21564     21563     21569     21565     21563     21569     21567     21566     21568
     21567     21566     21569     21567     21566     21570     21568     21566     21569
     21568     21566     21570     21569     21566     21570     21563     21569     21566
     21566     21570     21571     21570     21571     21572     21570     21571     21573
     21570     21571     21574     21572     21571     21573     21572     21571     21574
     21573     21571     21574     21571     21574     21575     21571     21574     21576
     21571     21574     21582     21575     21574     21576     21575     21574     21582
     21576     21574     21582     21574     21576     21577     21576     21577     21578
     21576     21577     21579     21578     21577     21579     21577     21579     21580
     21577     21579     21581     21577     21579     21591     21580     21579     21581
     21580     21579     21591     21581     21579     21591     21574     21582     21583
     21574     21582     21584     21574     21582     21585     21583     21582     21584
     21583     21582     21585     21584     21582     21585     21582     21585     21586
     21585     21586     21587     21585     21586     21588     21587     21586     21588
     21586     21588     21589     21586     21588     21590     21586     21588     21638
     21589     21588     21590     21589     21588     21638     21590     21588     21638
     21579     21591     21592     21579     21591     21593     21579     21591     21594
     21592     21591     21593     21592     21591     21594     21593     21591     21594
     21591     21594     21595     21591     21594     21596     21591     21594     21597
     21595     21594     21596     21595     21594     21597     21596     21594     21597
     21594     21597     21598     21594     21597     21599     21594     21597     21600
     21598     21597     21599     21598     21597     21600     21599     21597     21600
     21597     21600     21601     21597     21600     21602     21597     21600     21603
     21601     21600     21602     21601     21600     21603     21602     21600     21603
     21600     21603     21604     21600     21603     21605     21600     21603     21606
     21604     21603     21605     21604     21603     21606     21605     21603     21606
     21603     21606     21607     21603     21606     21608     21603     21606     21609
     21607     21606     21608     21607     21606     21609     21608     21606     21609
     21606     21609     21610     21606     21609     21611     21610     21609     21611
     21609     21611     21612     21609     21611     21613     21612     21611     21613
     21611     21613     21614     21611     21613     21615     21611     21613     21616
     21614     21613     21615     21614     21613     21616     21615     21613     21616
     21613     21616     21617     21613     21616     21618     21613     21616     21619
     21617     21616     21618     21617     21616     21619     21618     21616     21619
     21616     21619     21620     21616     21619     21621     21616     21619     21622
     21620     21619     21621     21620     21619     21622     21621     21619     21622
     21619     21622     21623     21619     21622     21624     21619     21622     21625
     21623     21622     21624     21623     21622     21625     21624     21622     21625
     21622     21625     21626     21622     21625     21627     21622     21625     21628
     21626     21625     21627     21626     21625     21628     21627     21625     21628
     21625     21628     21629     21625     21628     21630     21625     21628     21631
     21629     21628     21630     21629     21628     21631     21630     21628     21631
     21628     21631     21632     21628     21631     21633     21628     21631     21634
     21632     21631     21633     21632     21631     21634     21633     21631     21634
     21631     21634     21635     21631     21634     21636     21631     21634     21637
     21635     21634     21636     21635     21634     21637     21636     21634     21637
     21588     21638     21639     21588     21638     21640     21588     21638     21641
     21639     21638     21640     21639     21638     21641     21640     21638     21641
     21638     21641     21642     21638     21641     21643     21638     21641     21644
     21642     21641     21643     21642     21641     21644     21643     21641     21644
     21641     21644     21645     21641     21644     21646     21641     21644     21647
     21645     21644     21646     21645     21644     21647     21646     21644     21647
     21644     21647     21648     21644     21647     21649     21644     21647     21650
     21648     21647     21649     21648     21647     21650     21649     21647     21650
     21647     21650     21651     21647     21650     21652     21647     21650     21653
     21651     21650     21652     21651     21650     21653     21652     21650     21653
     21650     21653     21654     21650     21653     21655     21650     21653     21656
     21654     21653     21655     21654     21653     21656     21655     21653     21656
     21653     21656     21657     21653     21656     21658     21653     21656     21659
     21657     21656     21658     21657     21656     21659     21658     21656     21659
     21656     21659     21660     21656     21659     21661     21656     21659     21662
     21660     21659     21661     21660     21659     21662     21661     21659     21662
     21659     21662     21663     21659     21662     21664     21659     21662     21665
     21663     21662     21664     21663     21662     21665     21664     21662     21665
     21662     21665     21666     21662     21665     21667     21662     21665     21668
     21666     21665     21667     21666     21665     21668     21667     21665     21668
     21665     21668     21669     21665     21668     21670     21665     21668     21671
     21669     21668     21670     21669     21668     21671     21670     21668     21671
     21668     21671     21672     21668     21671     21673     21668     21671     21674
     21672     21671     21673     21672     21671     21674     21673     21671     21674
     21671     21674     21675     21671     21674     21676     21671     21674     21677
     21675     21674     21676     21675     21674     21677     21676     21674     21677
     21674     21677     21678     21674     21677     21679     21674     21677     21680
     21678     21677     21679     21678     21677     21680     21679     21677     21680
      5992      5991      5993      5992      5991      5995      5992      5991      6037
      5993      5991      5995      5993      5991      6037      5995      5991      6037
      5991      5993      5994      5991      5995      5996      5991      5995      5997
      5991      5995      5998      5996      5995      5997      5996      5995      5998
      5997      5995      5998      5995      5998      5999      5995      5998      6029
      5999      5998      6029      5998      5999      6000      5998      5999      6001
      6000      5999      6001      5999      6001      6002      5999      6001      6003
      5999      6001      6004      6002      6001      6003      6002      6001      6004
      6003      6001      6004      6001      6004      6005      6001      6004      6006
      6001      6004      6027      6005      6004      6006      6005      6004      6027
      6006      6004      6027      6004      6006      6007      6004      6006      6008
      6004      6006      6016      6007      6006      6008      6007      6006      6016
      6008      6006      6016      6006      6008      6009      6006      6008      6010
      6006      6008      6011      6009      6008      6010      6009      6008      6011
      6010      6008      6011      6008      6011      6012      6008      6011      6013
      6008      6011      6014      6012      6011      6013      6012      6011      6014
      6013      6011      6014      6011      6014      6015      6011      6014      6016
      6011      6014      6040      6015      6014      6016      6015      6014      6040
      6016      6014      6040      6006      6016      6014      6006      6016      6017
      6006      6016      6021      6014      6016      6017      6014      6016      6021
      6017      6016      6021      6016      6017      6018      6016      6017      6019
      6016      6017      6020      6018      6017      6019      6018      6017      6020
      6019      6017      6020      6016      6021      6022      6016      6021      6023
      6016      6021      6024      6022      6021      6023      6022      6021      6024
      6023      6021      6024      6021      6024      6025      6021      6024      6026
      6021      6024      6027      6025      6024      6026      6025      6024      6027
      6026      6024      6027      6004      6027      6024      6004      6027      6028
      6004      6027      6029      6024      6027      6028      6024      6027      6029
      6028      6027      6029      5998      6029      6027      5998      6029      6030
      5998      6029      6034      6027      6029      6030      6027      6029      6034
      6030      6029      6034      6029      6030      6031      6029      6030      6032
      6029      6030      6033      6031      6030      6032      6031      6030      6033
      6032      6030      6033      6029      6034      6035      6029      6034      6036
      6029      6034      6037      6035      6034      6036      6035      6034      6037
      6036      6034      6037      5991      6037      6034      5991      6037      6038
      5991      6037      6039      6034      6037      6038      6034      6037      6039
      6038      6037      6039      6014      6040      6041      6014      6040      6042
      6014      6040      6046      6041      6040      6042      6041      6040      6046
      6042      6040      6046      6040      6042      6043      6040      6042      6044
      6040      6042      6045      6043      6042      6044      6043      6042      6045
      6044      6042      6045      6040      6046      6047      6040      6046      6048
      6040      6046      6049      6047      6046      6048      6047      6046      6049
      6048      6046      6049      6046      6049      6050      6046      6049      6051
      6046      6049      6052      6050      6049      6051      6050      6049      6052
      6051      6049      6052      6049      6052      6053      6049      6052      6054
      6049      6052      6055      6053      6052      6054      6053      6052      6055
      6054      6052      6055      6052      6055      6056      6052      6055      6057
      6052      6055      6061      6056      6055      6057      6056      6055      6061
      6057      6055      6061      6055      6057      6058      6055      6057      6059
      6055      6057      6060      6058      6057      6059      6058      6057      6060
      6059      6057      6060      6055      6061      6062      6055      6061      6063
      6055      6061      6064      6062      6061      6063      6062      6061      6064
      6063      6061      6064      9778      9777      9781      9778      9777      9785
      9778      9777      9789      9781      9777      9785      9781      9777      9789
      9785      9777      9789      9777      9778      9779      9777      9778      9780
      9777      9778      9793      9779      9778      9780      9779      9778      9793
      9780      9778      9793      9777      9781      9782      9777      9781      9783
      9777      9781      9784      9782      9781      9783      9782      9781      9784
      9783      9781      9784      9777      9785      9786      9777      9785      9787
      9777      9785      9788      9786      9785      9787      9786      9785      9788
      9787      9785      9788      9777      9789      9790      9777      9789      9791
      9777      9789      9792      9790      9789      9791      9790      9789      9792
      9791      9789      9792      9778      9793      9794      9778      9793      9795
      9778      9793      9799      9794      9793      9795      9794      9793      9799
      9795      9793      9799      9797      9796      9798      9797      9796      9799
      9797      9796      9800      9798      9796      9799      9798      9796      9800
      9799      9796      9800      9793      9799      9796      9796      9800      9801
      9800      9801      9802      9800      9801      9803      9800      9801      9804
      9802      9801      9803      9802      9801      9804      9803      9801      9804
      9801      9804      9805      9801      9804      9806      9801      9804      9812
      9805      9804      9806      9805      9804      9812      9806      9804      9812
      9804      9806      9807      9806      9807      9808      9806      9807      9809
      9808      9807      9809      9807      9809      9810      9807      9809      9811
      9807      9809      9821      9810      9809      9811      9810      9809      9821
      9811      9809      9821      9804      9812      9813      9804      9812      9814
      9804      9812      9815      9813      9812      9814      9813      9812      9815
      9814      9812      9815      9812      9815      9816      9815      9816      9817
      9815      9816      9818      9817      9816      9818      9816      9818      9819
      9816      9818      9820      9816      9818      9868      9819      9818      9820
      9819      9818      9868      9820      9818      9868      9809      9821      9822
      9809      9821      9823      9809      9821      9824      9822      9821      9823
      9822      9821      9824      9823      9821      9824      9821      9824      9825
      9821      9824      9826      9821      9824      9827      9825      9824      9826
      9825      9824      9827      9826      9824      9827      9824      9827      9828
      9824      9827      9829      9828      9827      9829      9827      9829      9830
      9827      9829      9831      9830      9829      9831      9829      9831      9832
      9829      9831      9833      9829      9831      9834      9832      9831      9833
      9832      9831      9834      9833      9831      9834      9831      9834      9835
      9831      9834      9836      9835      9834      9836      9834      9836      9837
      9834      9836      9838      9837      9836      9838      9836      9838      9839
      9836      9838      9840      9836      9838      9841      9839      9838      9840
      9839      9838      9841      9840      9838      9841      9838      9841      9842
      9838      9841      9843      9842      9841      9843      9841      9843      9844
      9841      9843      9845      9844      9843      9845      9843      9845      9846
      9843      9845      9847      9843      9845      9848      9846      9845      9847
      9846      9845      9848      9847      9845      9848      9845      9848      9849
      9845      9848      9850      9849      9848      9850      9848      9850      9851
      9848      9850      9852      9851      9850      9852      9850      9852      9853
      9850      9852      9854      9850      9852      9855      9853      9852      9854
      9853      9852      9855      9854      9852      9855      9852      9855      9856
      9852      9855      9857      9852      9855      9858      9856      9855      9857
      9856      9855      9858      9857      9855      9858      9855      9858      9859
      9855      9858      9860      9855      9858      9861      9859      9858      9860
      9859      9858      9861      9860      9858      9861      9858      9861      9862
      9858      9861      9863      9858      9861      9864      9862      9861      9863
      9862      9861      9864      9863      9861      9864      9861      9864      9865
      9861      9864      9866      9861      9864      9867      9865      9864      9866
      9865      9864      9867      9866      9864      9867      9818      9868      9869
      9818      9868      9870      9818      9868      9871      9869      9868      9870
      9869      9868      9871      9870      9868      9871      9868      9871      9872
      9868      9871      9873      9868      9871      9874      9872      9871      9873
      9872      9871      9874      9873      9871      9874      9871      9874      9875
      9871      9874      9876      9871      9874      9877      9875      9874      9876
      9875      9874      9877      9876      9874      9877      9874      9877      9878
      9874      9877      9879      9874      9877      9880      9878      9877      9879
      9878      9877      9880      9879      9877      9880      9877      9880      9881
      9877      9880      9882      9877      9880      9883      9881      9880      9882
      9881      9880      9883      9882      9880      9883      9880      9883      9884
      9880      9883      9885      9880      9883      9886      9884      9883      9885
      9884      9883      9886      9885      9883      9886      9883      9886      9887
      9883      9886      9888      9883      9886      9889      9887      9886      9888
      9887      9886      9889      9888      9886      9889      9886      9889      9890
      9886      9889      9891      9886      9889      9892      9890      9889      9891
      9890      9889      9892      9891      9889      9892      9889      9892      9893
      9889      9892      9894      9889      9892      9895      9893      9892      9894
      9893      9892      9895      9894      9892      9895      9892      9895      9896
      9892      9895      9897      9892      9895      9898      9896      9895      9897
      9896      9895      9898      9897      9895      9898      9895      9898      9899
      9895      9898      9900      9895      9898      9901      9899      9898      9900
      9899      9898      9901      9900      9898      9901      9898      9901      9902
      9898      9901      9903      9898      9901      9904      9902      9901      9903
      9902      9901      9904      9903      9901      9904      9901      9904      9905
      9901      9904      9906      9901      9904      9907      9905      9904      9906
      9905      9904      9907      9906      9904      9907      9904      9907      9908
      9904      9907      9909      9904      9907      9910      9908      9907      9909
      9908      9907      9910      9909      9907      9910      9907      9910      9911
      9907      9910      9912      9907      9910      9913      9911      9910      9912
      9911      9910      9913      9912      9910      9913      9910      9913      9914
      9910      9913      9915      9910      9913      9916      9914      9913      9915
      9914      9913      9916      9915      9913      9916      2396      2395      2397
      2396      2395      2398      2396      2395      2399      2397      2395      2398
      2397      2395      2399      2398      2395      2399      2395      2399      2400
      2395      2399      2401      2395      2399      2404      2400      2399      2401
      2400      2399      2404      2401      2399      2404      2399      2401      2402
      2399      2401      2403      2402      2401      2403      2399      2404      2405
      2399      2404      2406      2399      2404      2410      2405      2404      2406
      2405      2404      2410      2406      2404      2410      2408      2407      2409
      2408      2407      2410      2408      2407      2411      2409      2407      2410
      2409      2407      2411      2410      2407      2411      2404      2410      2407
      2407      2411      2412      2411      2412      2413      2411      2412      2414
      2411      2412      2415      2413      2412      2414      2413      2412      2415
      2414      2412      2415      2412      2415      2416      2412      2415      2417
      2412      2415      2423      2416      2415      2417      2416      2415      2423
      2417      2415      2423      2415      2417      2418      2417      2418      2419
      2417      2418      2420      2419      2418      2420      2418      2420      2421
      2418      2420      2422      2418      2420      2432      2421      2420      2422
      2421      2420      2432      2422      2420      2432      2415      2423      2424
      2415      2423      2425      2415      2423      2426      2424      2423      2425
      2424      2423      2426      2425      2423      2426      2423      2426      2427
      2426      2427      2428      2426      2427      2429      2428      2427      2429
      2427      2429      2430      2427      2429      2431      2427      2429      2479
      2430      2429      2431      2430      2429      2479      2431      2429      2479
      2420      2432      2433      2420      2432      2434      2420      2432      2435
      2433      2432      2434      2433      2432      2435      2434      2432      2435
      2432      2435      2436      2432      2435      2437      2432      2435      2438
      2436      2435      2437      2436      2435      2438      2437      2435      2438
      2435      2438      2439      2435      2438      2440      2439      2438      2440
      2438      2440      2441      2438      2440      2442      2441      2440      2442
      2440      2442      2443      2440      2442      2444      2440      2442      2445
      2443      2442      2444      2443      2442      2445      2444      2442      2445
      2442      2445      2446      2442      2445      2447      2446      2445      2447
      2445      2447      2448      2445      2447      2449      2448      2447      2449
      2447      2449      2450      2447      2449      2451      2447      2449      2452
      2450      2449      2451      2450      2449      2452      2451      2449      2452
      2449      2452      2453      2449      2452      2454      2453      2452      2454
      2452      2454      2455      2452      2454      2456      2455      2454      2456
      2454      2456      2457      2454      2456      2458      2454      2456      2459
      2457      2456      2458      2457      2456      2459      2458      2456      2459
      2456      2459      2460      2456      2459      2461      2460      2459      2461
      2459      2461      2462      2459      2461      2463      2462      2461      2463
      2461      2463      2464      2461      2463      2465      2461      2463      2466
      2464      2463      2465      2464      2463      2466      2465      2463      2466
      2463      2466      2467      2463      2466      2468      2463      2466      2469
      2467      2466      2468      2467      2466      2469      2468      2466      2469
      2466      2469      2470      2466      2469      2471      2466      2469      2472
      2470      2469      2471      2470      2469      2472      2471      2469      2472
      2469      2472      2473      2469      2472      2474      2469      2472      2475
      2473      2472      2474      2473      2472      2475      2474      2472      2475
      2472      2475      2476      2472      2475      2477      2472      2475      2478
      2476      2475      2477      2476      2475      2478      2477      2475      2478
      2429      2479      2480      2429      2479      2481      2429      2479      2482
      2480      2479      2481      2480      2479      2482      2481      2479      2482
      2479      2482      2483      2479      2482      2484      2479      2482      2485
      2483      2482      2484      2483      2482      2485      2484      2482      2485
      2482      2485      2486      2482      2485      2487      2482      2485      2488
      2486      2485      2487      2486      2485      2488      2487      2485      2488
      2485      2488      2489      2485      2488      2490      2485      2488      2491
      2489      2488      2490      2489      2488      2491      2490      2488      2491
      2488      2491      2492      2488      2491      2493      2488      2491      2494
      2492      2491      2493      2492      2491      2494      2493      2491      2494
      2491      2494      2495      2491      2494      2496      2491      2494      2497
      2495      2494      2496      2495      2494      2497      2496      2494      2497
      2494      2497      2498      2494      2497      2499      2494      2497      2500
      2498      2497      2499      2498      2497      2500      2499      2497      2500
      2497      2500      2501      2497      2500      2502      2497      2500      2503
      2501      2500      2502      2501      2500      2503      2502      2500      2503
      2500      2503      2504      2500      2503      2505      2500      2503      2506
      2504      2503      2505      2504      2503      2506      2505      2503      2506
      2503      2506      2507      2503      2506      2508      2503      2506      2509
      2507      2506      2508      2507      2506      2509      2508      2506      2509
      2506      2509      2510      2506      2509      2511      2506      2509      2512
      2510      2509      2511      2510      2509      2512      2511      2509      2512
      2509      2512      2513      2509      2512      2514      2509      2512      2515
      2513      2512      2514      2513      2512      2515      2514      2512      2515
      2512      2515      2516      2512      2515      2517      2512      2515      2518
      2516      2515      2517      2516      2515      2518      2517      2515      2518
      2515      2518      2519      2515      2518      2520      2515      2518      2521
      2519      2518      2520      2519      2518      2521      2520      2518      2521
      2518      2521      2522      2518      2521      2523      2518      2521      2524
      2522      2521      2523      2522      2521      2524      2523      2521      2524
      2521      2524      2525      2521      2524      2526      2521      2524      2527
      2525      2524      2526      2525      2524      2527      2526      2524      2527
     15167     15166     15171     15167     15166     15175     15167     15166     15179
     15171     15166     15175     15171     15166     15179     15175     15166     15179
     15166     15167     15168     15166     15167     15169     15166     15167     15170
     15168     15167     15169     15168     15167     15170     15169     15167     15170
     15166     15171     15172     15166     15171     15173     15166     15171     15174
     15172     15171     15173     15172     15171     15174     15173     15171     15174
     15166     15175     15176     15166     15175     15177     15166     15175     15178
     15176     15175     15177     15176     15175     15178     15177     15175     15178
     15166     15179     15180     15166     15179     15181     15166     15179     15182
     15180     15179     15181     15180     15179     15182     15181     15179     15182
     15179     15182     15183     15179     15182     15184     15179     15182     15189
     15183     15182     15184     15183     15182     15189     15184     15182     15189
     15186     15185     15187     15186     15185     15188     15186     15185     15189
     15187     15185     15188     15187     15185     15189     15188     15185     15189
     15185     15188     15190     15182     15189     15185     15188     15190     15191
     15188     15190     15192     15188     15190     15195     15191     15190     15192
     15191     15190     15195     15192     15190     15195     15194     15193     15195
     15194     15193     15245     15195     15193     15245     15190     15195     15193
     15190     15195     15196     15190     15195     15197     15193     15195     15196
     15193     15195     15197     15196     15195     15197     15195     15197     15198
     15195     15197     15199     15195     15197     15201     15198     15197     15199
     15198     15197     15201     15199     15197     15201     15197     15199     15200
     15197     15201     15202     15197     15201     15203     15202     15201     15203
     15201     15203     15204     15201     15203     15205     15204     15203     15205
     15203     15205     15206     15203     15205     15207     15203     15205     15208
     15206     15205     15207     15206     15205     15208     15207     15205     15208
     15205     15208     15209     15205     15208     15210     15205     15208     15211
     15209     15208     15210     15209     15208     15211     15210     15208     15211
     15208     15211     15212     15208     15211     15213     15208     15211     15214
     15212     15211     15213     15212     15211     15214     15213     15211     15214
     15211     15214     15215     15211     15214     15216     15211     15214     15217
     15215     15214     15216     15215     15214     15217     15216     15214     15217
     15214     15217     15218     15214     15217     15219     15214     15217     15220
     15218     15217     15219     15218     15217     15220     15219     15217     15220
     15217     15220     15221     15217     15220     15222     15217     15220     15223
     15221     15220     15222     15221     15220     15223     15222     15220     15223
     15220     15223     15224     15220     15223     15225     15220     15223     15226
     15224     15223     15225     15224     15223     15226     15225     15223     15226
     15223     15226     15227     15223     15226     15228     15223     15226     15229
     15227     15226     15228     15227     15226     15229     15228     15226     15229
     15226     15229     15230     15226     15229     15231     15226     15229     15232
     15230     15229     15231     15230     15229     15232     15231     15229     15232
     15229     15232     15233     15229     15232     15234     15229     15232     15235
     15233     15232     15234     15233     15232     15235     15234     15232     15235
     15232     15235     15236     15232     15235     15237     15232     15235     15238
     15236     15235     15237     15236     15235     15238     15237     15235     15238
     15235     15238     15239     15235     15238     15240     15235     15238     15241
     15239     15238     15240     15239     15238     15241     15240     15238     15241
     15238     15241     15242     15238     15241     15243     15238     15241     15244
     15242     15241     15243     15242     15241     15244     15243     15241     15244
     15193     15245     15246     15193     15245     15247     15246     15245     15247
     15245     15247     15248     15245     15247     15249     15245     15247     15250
     15248     15247     15249     15248     15247     15250     15249     15247     15250
     15247     15250     15251     15247     15250     15252     15247     15250     15253
     15251     15250     15252     15251     15250     15253     15252     15250     15253
     15250     15253     15254     15250     15253     15255     15250     15253     15256
     15254     15253     15255     15254     15253     15256     15255     15253     15256
     15253     15256     15257     15253     15256     15258     15253     15256     15259
     15257     15256     15258     15257     15256     15259     15258     15256     15259
     15256     15259     15260     15256     15259     15261     15256     15259     15262
     15260     15259     15261     15260     15259     15262     15261     15259     15262
     15259     15262     15263     15259     15262     15264     15259     15262     15265
     15263     15262     15264     15263     15262     15265     15264     15262     15265
     15262     15265     15266     15262     15265     15267     15262     15265     15268
     15266     15265     15267     15266     15265     15268     15267     15265     15268
     15265     15268     15269     15265     15268     15270     15269     15268     15270
     15268     15270     15271     15268     15270     15272     15271     15270     15272
     15270     15272     15273     15270     15272     15274     15270     15272     15275
     15273     15272     15274     15273     15272     15275     15274     15272     15275
     15272     15275     15276     15272     15275     15277     15272     15275     15278
     15276     15275     15277     15276     15275     15278     15277     15275     15278
     15275     15278     15279     15275     15278     15280     15275     15278     15281
     15279     15278     15280     15279     15278     15281     15280     15278     15281
     15278     15281     15282     15278     15281     15283     15278     15281     15284
     15282     15281     15283     15282     15281     15284     15283     15281     15284
     15281     15284     15285     15281     15284     15286     15281     15284     15287
     15285     15284     15286     15285     15284     15287     15286     15284     15287
     15284     15287     15288     15284     15287     15289     15284     15287     15290
     15288     15287     15289     15288     15287     15290     15289     15287     15290
     15287     15290     15291     15287     15290     15292     15287     15290     15293
     15291     15290     15292     15291     15290     15293     15292     15290     15293
     15290     15293     15294     15290     15293     15295     15290     15293     15296
     15294     15293     15295     15294     15293     15296     15295     15293     15296
      2529      2528      2530      2529      2528      2531      2529      2528      2532
      2530      2528      2531      2530      2528      2532      2531      2528      2532
      2528      2532      2533      2528      2532      2534      2528      2532      2537
      2533      2532      2534      2533      2532      2537      2534      2532      2537
      2532      2534      2535      2532      2534      2536      2535      2534      2536
      2532      2537      2538      2532      2537      2539      2532      2537      2543
      2538      2537      2539      2538      2537      2543      2539      2537      2543
      2541      2540      2542      2541      2540      2543      2541      2540      2544
      2542      2540      2543      2542      2540      2544      2543      2540      2544
      2537      2543      2540      2540      2544      2545      2544      2545      2546
      2544      2545      2547      2544      2545      2548      2546      2545      2547
      2546      2545      2548      2547      2545      2548      2545      2548      2549
      2545      2548      2550      2545      2548      2556      2549      2548      2550
      2549      2548      2556      2550      2548      2556      2548      2550      2551
      2550      2551      2552      2550      2551      2553      2552      2551      2553
      2551      2553      2554      2551      2553      2555      2551      2553      2565
      2554      2553      2555      2554      2553      2565      2555      2553      2565
      2548      2556      2557      2548      2556      2558      2548      2556      2559
      2557      2556      2558      2557      2556      2559      2558      2556      2559
      2556      2559      2560      2559      2560      2561      2559      2560      2562
      2561      2560      2562      2560      2562      2563      2560      2562      2564
      2560      2562      2612      2563      2562      2564      2563      2562      2612
      2564      2562      2612      2553      2565      2566      2553      2565      2567
      2553      2565      2568      2566      2565      2567      2566      2565      2568
      2567      2565      2568      2565      2568      2569      2565      2568      2570
      2565      2568      2571      2569      2568      2570      2569      2568      2571
      2570      2568      2571      2568      2571      2572      2568      2571      2573
      2572      2571      2573      2571      2573      2574      2571      2573      2575
      2574      2573      2575      2573      2575      2576      2573      2575      2577
      2573      2575      2578      2576      2575      2577      2576      2575      2578
      2577      2575      2578      2575      2578      2579      2575      2578      2580
      2579      2578      2580      2578      2580      2581      2578      2580      2582
      2581      2580      2582      2580      2582      2583      2580      2582      2584
      2580      2582      2585      2583      2582      2584      2583      2582      2585
      2584      2582      2585      2582      2585      2586      2582      2585      2587
      2586      2585      2587      2585      2587      2588      2585      2587      2589
      2588      2587      2589      2587      2589      2590      2587      2589      2591
      2587      2589      2592      2590      2589      2591      2590      2589      2592
      2591      2589      2592      2589      2592      2593      2589      2592      2594
      2593      2592      2594      2592      2594      2595      2592      2594      2596
      2595      2594      2596      2594      2596      2597      2594      2596      2598
      2594      2596      2599      2597      2596      2598      2597      2596      2599
      2598      2596      2599      2596      2599      2600      2596      2599      2601
      2596      2599      2602      2600      2599      2601      2600      2599      2602
      2601      2599      2602      2599      2602      2603      2599      2602      2604
      2599      2602      2605      2603      2602      2604      2603      2602      2605
      2604      2602      2605      2602      2605      2606      2602      2605      2607
      2602      2605      2608      2606      2605      2607      2606      2605      2608
      2607      2605      2608      2605      2608      2609      2605      2608      2610
      2605      2608      2611      2609      2608      2610      2609      2608      2611
      2610      2608      2611      2562      2612      2613      2562      2612      2614
      2562      2612      2615      2613      2612      2614      2613      2612      2615
      2614      2612      2615      2612      2615      2616      2612      2615      2617
      2612      2615      2618      2616      2615      2617      2616      2615      2618
      2617      2615      2618      2615      2618      2619      2615      2618      2620
      2615      2618      2621      2619      2618      2620      2619      2618      2621
      2620      2618      2621      2618      2621      2622      2618      2621      2623
      2618      2621      2624      2622      2621      2623      2622      2621      2624
      2623      2621      2624      2621      2624      2625      2621      2624      2626
      2621      2624      2627      2625      2624      2626      2625      2624      2627
      2626      2624      2627      2624      2627      2628      2624      2627      2629
      2624      2627      2630      2628      2627      2629      2628      2627      2630
      2629      2627      2630      2627      2630      2631      2627      2630      2632
      2627      2630      2633      2631      2630      2632      2631      2630      2633
      2632      2630      2633      2630      2633      2634      2630      2633      2635
      2630      2633      2636      2634      2633      2635      2634      2633      2636
      2635      2633      2636      2633      2636      2637      2633      2636      2638
      2633      2636      2639      2637      2636      2638      2637      2636      2639
      2638      2636      2639      2636      2639      2640      2636      2639      2641
      2636      2639      2642      2640      2639      2641      2640      2639      2642
      2641      2639      2642      2639      2642      2643      2639      2642      2644
      2639      2642      2645      2643      2642      2644      2643      2642      2645
      2644      2642      2645      2642      2645      2646      2642      2645      2647
      2642      2645      2648      2646      2645      2647      2646      2645      2648
      2647      2645      2648      2645      2648      2649      2645      2648      2650
      2645      2648      2651      2649      2648      2650      2649      2648      2651
      2650      2648      2651      2648      2651      2652      2648      2651      2653
      2648      2651      2654      2652      2651      2653      2652      2651      2654
      2653      2651      2654      2651      2654      2655      2651      2654      2656
      2651      2654      2657      2655      2654      2656      2655      2654      2657
      2656      2654      2657      2654      2657      2658      2654      2657      2659
      2654      2657      2660      2658      2657      2659      2658      2657      2660
      2659      2657      2660     18835     18834     18836     18835     18834     18837
     18835     18834     18838     18836     18834     18837     18836     18834     18838
     18837     18834     18838     18834     18838     18839     18834     18838     18840
     18834     18838     18841     18839     18838     18840     18839     18838     18841
     18840     18838     18841     18838     18841     18842     18838     18841     18843
     18838     18841     18847     18842     18841     18843     18842     18841     18847
     18843     18841     18847     18845     18844     18846     18845     18844     18847
     18845     18844     18848     18846     18844     18847     18846     18844     18848
     18847     18844     18848     18841     18847     18844     18844     18848     18849
     18848     18849     18850     18848     18849     18851     18848     18849     18852
     18850     18849     18851     18850     18849     18852     18851     18849     18852
     18849     18852     18853     18849     18852     18854     18849     18852     18860
     18853     18852     18854     18853     18852     18860     18854     18852     18860
     18852     18854     18855     18854     18855     18856     18854     18855     18857
     18856     18855     18857     18855     18857     18858     18855     18857     18859
     18855     18857     18869     18858     18857     18859     18858     18857     18869
     18859     18857     18869     18852     18860     18861     18852     18860     18862
     18852     18860     18863     18861     18860     18862     18861     18860     18863
     18862     18860     18863     18860     18863     18864     18863     18864     18865
     18863     18864     18866     18865     18864     18866     18864     18866     18867
     18864     18866     18868     18864     18866     18916     18867     18866     18868
     18867     18866     18916     18868     18866     18916     18857     18869     18870
     18857     18869     18871     18857     18869     18872     18870     18869     18871
     18870     18869     18872     18871     18869     18872     18869     18872     18873
     18869     18872     18874     18869     18872     18875     18873     18872     18874
     18873     18872     18875     18874     18872     18875     18872     18875     18876
     18872     18875     18877     18876     18875     18877     18875     18877     18878
     18875     18877     18879     18878     18877     18879     18877     18879     18880
     18877     18879     18881     18877     18879     18882     18880     18879     18881
     18880     18879     18882     18881     18879     18882     18879     18882     18883
     18879     18882     18884     18883     18882     18884     18882     18884     18885
     18882     18884     18886     18885     18884     18886     18884     18886     18887
     18884     18886     18888     18884     18886     18889     18887     18886     18888
     18887     18886     18889     18888     18886     18889     18886     18889     18890
     18886     18889     18891     18890     18889     18891     18889     18891     18892
     18889     18891     18893     18892     18891     18893     18891     18893     18894
     18891     18893     18895     18891     18893     18896     18894     18893     18895
     18894     18893     18896     18895     18893     18896     18893     18896     18897
     18893     18896     18898     18897     18896     18898     18896     18898     18899
     18896     18898     18900     18899     18898     18900     18898     18900     18901
     18898     18900     18902     18898     18900     18903     18901     18900     18902
     18901     18900     18903     18902     18900     18903     18900     18903     18904
     18900     18903     18905     18900     18903     18906     18904     18903     18905
     18904     18903     18906     18905     18903     18906     18903     18906     18907
     18903     18906     18908     18903     18906     18909     18907     18906     18908
     18907     18906     18909     18908     18906     18909     18906     18909     18910
     18906     18909     18911     18906     18909     18912     18910     18909     18911
     18910     18909     18912     18911     18909     18912     18909     18912     18913
     18909     18912     18914     18909     18912     18915     18913     18912     18914
     18913     18912     18915     18914     18912     18915     18866     18916     18917
     18866     18916     18918     18866     18916     18919     18917     18916     18918
     18917     18916     18919     18918     18916     18919     18916     18919     18920
     18916     18919     18921     18916     18919     18922     18920     18919     18921
     18920     18919     18922     18921     18919     18922     18919     18922     18923
     18919     18922     18924     18919     18922     18925     18923     18922     18924
     18923     18922     18925     18924     18922     18925     18922     18925     18926
     18922     18925     18927     18922     18925     18928     18926     18925     18927
     18926     18925     18928     18927     18925     18928     18925     18928     18929
     18925     18928     18930     18925     18928     18931     18929     18928     18930
     18929     18928     18931     18930     18928     18931     18928     18931     18932
     18928     18931     18933     18928     18931     18934     18932     18931     18933
     18932     18931     18934     18933     18931     18934     18931     18934     18935
     18931     18934     18936     18931     18934     18937     18935     18934     18936
     18935     18934     18937     18936     18934     18937     18934     18937     18938
     18934     18937     18939     18934     18937     18940     18938     18937     18939
     18938     18937     18940     18939     18937     18940     18937     18940     18941
     18937     18940     18942     18937     18940     18943     18941     18940     18942
     18941     18940     18943     18942     18940     18943     18940     18943     18944
     18940     18943     18945     18940     18943     18946     18944     18943     18945
     18944     18943     18946     18945     18943     18946     18943     18946     18947
     18943     18946     18948     18943     18946     18949     18947     18946     18948
     18947     18946     18949     18948     18946     18949     18946     18949     18950
     18946     18949     18951     18946     18949     18952     18950     18949     18951
     18950     18949     18952     18951     18949     18952     18949     18952     18953
     18949     18952     18954     18949     18952     18955     18953     18952     18954
     18953     18952     18955     18954     18952     18955     18952     18955     18956
     18952     18955     18957     18952     18955     18958     18956     18955     18957
     18956     18955     18958     18957     18955     18958     18955     18958     18959
     18955     18958     18960     18955     18958     18961     18959     18958     18960
     18959     18958     18961     18960     18958     18961     18958     18961     18962
     18958     18961     18963     18958     18961     18964     18962     18961     18963
     18962     18961     18964     18963     18961     18964      6066      6065      6067
      6066      6065      6069      6066      6065      6111      6067      6065      6069
      6067      6065      6111      6069      6065      6111      6065      6067      6068
      6065      6069      6070      6065      6069      6071      6065      6069      6072
      6070      6069      6071      6070      6069      6072      6071      6069      6072
      6069      6072      6073      6069      6072      6103      6073      6072      6103
      6072      6073      6074      6072      6073      6075      6074      6073      6075
      6073      6075      6076      6073      6075      6077      6073      6075      6078
      6076      6075      6077      6076      6075      6078      6077      6075      6078
      6075      6078      6079      6075      6078      6080      6075      6078      6101
      6079      6078      6080      6079      6078      6101      6080      6078      6101
      6078      6080      6081      6078      6080      6082      6078      6080      6090
      6081      6080      6082      6081      6080      6090      6082      6080      6090
      6080      6082      6083      6080      6082      6084      6080      6082      6085
      6083      6082      6084      6083      6082      6085      6084      6082      6085
      6082      6085      6086      6082      6085      6087      6082      6085      6088
      6086      6085      6087      6086      6085      6088      6087      6085      6088
      6085      6088      6089      6085      6088      6090      6085      6088      6114
      6089      6088      6090      6089      6088      6114      6090      6088      6114
      6080      6090      6088      6080      6090      6091      6080      6090      6095
      6088      6090      6091      6088      6090      6095      6091      6090      6095
      6090      6091      6092      6090      6091      6093      6090      6091      6094
      6092      6091      6093      6092      6091      6094      6093      6091      6094
      6090      6095      6096      6090      6095      6097      6090      6095      6098
      6096      6095      6097      6096      6095      6098      6097      6095      6098
      6095      6098      6099      6095      6098      6100      6095      6098      6101
      6099      6098      6100      6099      6098      6101      6100      6098      6101
      6078      6101      6098      6078      6101      6102      6078      6101      6103
      6098      6101      6102      6098      6101      6103      6102      6101      6103
      6072      6103      6101      6072      6103      6104      6072      6103      6108
      6101      6103      6104      6101      6103      6108      6104      6103      6108
      6103      6104      6105      6103      6104      6106      6103      6104      6107
      6105      6104      6106      6105      6104      6107      6106      6104      6107
      6103      6108      6109      6103      6108      6110      6103      6108      6111
      6109      6108      6110      6109      6108      6111      6110      6108      6111
      6065      6111      6108      6065      6111      6112      6065      6111      6113
      6108      6111      6112      6108      6111      6113      6112      6111      6113
      6088      6114      6115      6088      6114      6116      6088      6114      6120
      6115      6114      6116      6115      6114      6120      6116      6114      6120
      6114      6116      6117      6114      6116      6118      6114      6116      6119
      6117      6116      6118      6117      6116      6119      6118      6116      6119
      6114      6120      6121      6114      6120      6122      6114      6120      6123
      6121      6120      6122      6121      6120      6123      6122      6120      6123
      6120      6123      6124      6120      6123      6125      6120      6123      6126
      6124      6123      6125      6124      6123      6126      6125      6123      6126
      6123      6126      6127      6123      6126      6128      6123      6126      6129
      6127      6126      6128      6127      6126      6129      6128      6126      6129
      6126      6129      6130      6126      6129      6131      6126      6129      6135
      6130      6129      6131      6130      6129      6135      6131      6129      6135
      6129      6131      6132      6129      6131      6133      6129      6131      6134
      6132      6131      6133      6132      6131      6134      6133      6131      6134
      6129      6135      6136      6129      6135      6137      6129      6135      6138
      6136      6135      6137      6136      6135      6138      6137      6135      6138
      6140      6139      6141      6140      6139      6143      6140      6139      6185
      6141      6139      6143      6141      6139      6185      6143      6139      6185
      6139      6141      6142      6139      6143      6144      6139      6143      6145
      6139      6143      6146      6144      6143      6145      6144      6143      6146
      6145      6143      6146      6143      6146      6147      6143      6146      6177
      6147      6146      6177      6146      6147      6148      6146      6147      6149
      6148      6147      6149      6147      6149      6150      6147      6149      6151
      6147      6149      6152      6150      6149      6151      6150      6149      6152
      6151      6149      6152      6149      6152      6153      6149      6152      6154
      6149      6152      6175      6153      6152      6154      6153      6152      6175
      6154      6152      6175      6152      6154      6155      6152      6154      6156
      6152      6154      6164      6155      6154      6156      6155      6154      6164
      6156      6154      6164      6154      6156      6157      6154      6156      6158
      6154      6156      6159      6157      6156      6158      6157      6156      6159
      6158      6156      6159      6156      6159      6160      6156      6159      6161
      6156      6159      6162      6160      6159      6161      6160      6159      6162
      6161      6159      6162      6159      6162      6163      6159      6162      6164
      6159      6162      6188      6163      6162      6164      6163      6162      6188
      6164      6162      6188      6154      6164      6162      6154      6164      6165
      6154      6164      6169      6162      6164      6165      6162      6164      6169
      6165      6164      6169      6164      6165      6166      6164      6165      6167
      6164      6165      6168      6166      6165      6167      6166      6165      6168
      6167      6165      6168      6164      6169      6170      6164      6169      6171
      6164      6169      6172      6170      6169      6171      6170      6169      6172
      6171      6169      6172      6169      6172      6173      6169      6172      6174
      6169      6172      6175      6173      6172      6174      6173      6172      6175
      6174      6172      6175      6152      6175      6172      6152      6175      6176
      6152      6175      6177      6172      6175      6176      6172      6175      6177
      6176      6175      6177      6146      6177      6175      6146      6177      6178
      6146      6177      6182      6175      6177      6178      6175      6177      6182
      6178      6177      6182      6177      6178      6179      6177      6178      6180
      6177      6178      6181      6179      6178      6180      6179      6178      6181
      6180      6178      6181      6177      6182      6183      6177      6182      6184
      6177      6182      6185      6183      6182      6184      6183      6182      6185
      6184      6182      6185      6139      6185      6182      6139      6185      6186
      6139      6185      6187      6182      6185      6186      6182      6185      6187
      6186      6185      6187      6162      6188      6189      6162      6188      6190
      6162      6188      6194      6189      6188      6190      6189      6188      6194
      6190      6188      6194      6188      6190      6191      6188      6190      6192
      6188      6190      6193      6191      6190      6192      6191      6190      6193
      6192      6190      6193      6188      6194      6195      6188      6194      6196
      6188      6194      6197      6195      6194      6196      6195      6194      6197
      6196      6194      6197      6194      6197      6198      6194      6197      6199
      6194      6197      6200      6198      6197      6199      6198      6197      6200
      6199      6197      6200      6197      6200      6201      6197      6200      6202
      6197      6200      6203      6201      6200      6202      6201      6200      6203
      6202      6200      6203      6200      6203      6204      6200      6203      6205
      6200      6203      6209      6204      6203      6205      6204      6203      6209
      6205      6203      6209      6203      6205      6206      6203      6205      6207
      6203      6205      6208      6206      6205      6207      6206      6205      6208
      6207      6205      6208      6203      6209      6210      6203      6209      6211
      6203      6209      6212      6210      6209      6211      6210      6209      6212
      6211      6209      6212     20870     20869     20874     20870     20869     20878
     20870     20869     20882     20874     20869     20878     20874     20869     20882
     20878     20869     20882     20869     20870     20871     20869     20870     20872
     20869     20870     20873     20871     20870     20872     20871     20870     20873
     20872     20870     20873     20869     20874     20875     20869     20874     20876
     20869     20874     20877     20875     20874     20876     20875     20874     20877
     20876     20874     20877     20869     20878     20879     20869     20878     20880
     20869     20878     20881     20879     20878     20880     20879     20878     20881
     20880     20878     20881     20869     20882     20883     20869     20882     20884
     20869     20882     20885     20883     20882     20884     20883     20882     20885
     20884     20882     20885     20882     20885     20886     20882     20885     20887
     20882     20885     20891     20886     20885     20887     20886     20885     20891
     20887     20885     20891     20889     20888     20890     20889     20888     20891
     20889     20888     20892     20890     20888     20891     20890     20888     20892
     20891     20888     20892     20885     20891     20888     20888     20892     20893
     20892     20893     20894     20892     20893     20895     20892     20893     20896
     20894     20893     20895     20894     20893     20896     20895     20893     20896
     20893     20896     20897     20893     20896     20898     20893     20896     20904
     20897     20896     20898     20897     20896     20904     20898     20896     20904
     20896     20898     20899     20898     20899     20900     20898     20899     20901
     20900     20899     20901     20899     20901     20902     20899     20901     20903
     20899     20901     20913     20902     20901     20903     20902     20901     20913
     20903     20901     20913     20896     20904     20905     20896     20904     20906
     20896     20904     20907     20905     20904     20906     20905     20904     20907
     20906     20904     20907     20904     20907     20908     20907     20908     20909
     20907     20908     20910     20909     20908     20910     20908     20910     20911
     20908     20910     20912     20908     20910     20958     20911     20910     20912
     20911     20910     20958     20912     20910     20958     20901     20913     20914
     20901     20913     20915     20901     20913     20916     20914     20913     20915
     20914     20913     20916     20915     20913     20916     20913     20916     20917
     20913     20916     20918     20913     20916     20919     20917     20916     20918
     20917     20916     20919     20918     20916     20919     20916     20919     20920
     20916     20919     20921     20916     20919     20922     20920     20919     20921
     20920     20919     20922     20921     20919     20922     20919     20922     20923
     20919     20922     20924     20919     20922     20925     20923     20922     20924
     20923     20922     20925     20924     20922     20925     20922     20925     20926
     20922     20925     20927     20922     20925     20928     20926     20925     20927
     20926     20925     20928     20927     20925     20928     20925     20928     20929
     20925     20928     20930     20925     20928     20931     20929     20928     20930
     20929     20928     20931     20930     20928     20931     20928     20931     20932
     20928     20931     20933     20932     20931     20933     20931     20933     20934
     20931     20933     20935     20934     20933     20935     20933     20935     20936
     20933     20935     20937     20933     20935     20938     20936     20935     20937
     20936     20935     20938     20937     20935     20938     20935     20938     20939
     20935     20938     20940     20939     20938     20940     20938     20940     20941
     20938     20940     20942     20941     20940     20942     20940     20942     20943
     20940     20942     20944     20940     20942     20945     20943     20942     20944
     20943     20942     20945     20944     20942     20945     20942     20945     20946
     20942     20945     20947     20942     20945     20948     20946     20945     20947
     20946     20945     20948     20947     20945     20948     20945     20948     20949
     20945     20948     20950     20945     20948     20951     20949     20948     20950
     20949     20948     20951     20950     20948     20951     20948     20951     20952
     20948     20951     20953     20948     20951     20954     20952     20951     20953
     20952     20951     20954     20953     20951     20954     20951     20954     20955
     20951     20954     20956     20951     20954     20957     20955     20954     20956
     20955     20954     20957     20956     20954     20957     20910     20958     20959
     20910     20958     20960     20910     20958     20961     20959     20958     20960
     20959     20958     20961     20960     20958     20961     20958     20961     20962
     20958     20961     20963     20958     20961     20964     20962     20961     20963
     20962     20961     20964     20963     20961     20964     20961     20964     20965
     20961     20964     20966     20961     20964     20967     20965     20964     20966
     20965     20964     20967     20966     20964     20967     20964     20967     20968
     20964     20967     20969     20964     20967     20970     20968     20967     20969
     20968     20967     20970     20969     20967     20970     20967     20970     20971
     20967     20970     20972     20967     20970     20973     20971     20970     20972
     20971     20970     20973     20972     20970     20973     20970     20973     20974
     20970     20973     20975     20970     20973     20976     20974     20973     20975
     20974     20973     20976     20975     20973     20976     20973     20976     20977
     20973     20976     20978     20973     20976     20979     20977     20976     20978
     20977     20976     20979     20978     20976     20979     20976     20979     20980
     20976     20979     20981     20976     20979     20982     20980     20979     20981
     20980     20979     20982     20981     20979     20982     20979     20982     20983
     20979     20982     20984     20979     20982     20985     20983     20982     20984
     20983     20982     20985     20984     20982     20985     20982     20985     20986
     20982     20985     20987     20982     20985     20988     20986     20985     20987
     20986     20985     20988     20987     20985     20988     20985     20988     20989
     20985     20988     20990     20985     20988     20991     20989     20988     20990
     20989     20988     20991     20990     20988     20991     20988     20991     20992
     20988     20991     20993     20988     20991     20994     20992     20991     20993
     20992     20991     20994     20993     20991     20994     20991     20994     20995
     20991     20994     20996     20991     20994     20997     20995     20994     20996
     20995     20994     20997     20996     20994     20997     20994     20997     20998
     20994     20997     20999     20994     20997     21000     20998     20997     20999
     20998     20997     21000     20999     20997     21000     20997     21000     21001
     20997     21000     21002     20997     21000     21003     21001     21000     21002
     21001     21000     21003     21002     21000     21003     21000     21003     21004
     21000     21003     21005     21000     21003     21006     21004     21003     21005
     21004     21003     21006     21005     21003     21006      6214      6213      6215
      6214      6213      6217      6214      6213      6259      6215      6213      6217
      6215      6213      6259      6217      6213      6259      6213      6215      6216
      6213      6217      6218      6213      6217      6219      6213      6217      6220
      6218      6217      6219      6218      6217      6220      6219      6217      6220
      6217      6220      6221      6217      6220      6251      6221      6220      6251
      6220      6221      6222      6220      6221      6223      6222      6221      6223
      6221      6223      6224      6221      6223      6225      6221      6223      6226
      6224      6223      6225      6224      6223      6226      6225      6223      6226
      6223      6226      6227      6223      6226      6228      6223      6226      6249
      6227      6226      6228      6227      6226      6249      6228      6226      6249
      6226      6228      6229      6226      6228      6230      6226      6228      6238
      6229      6228      6230      6229      6228      6238      6230      6228      6238
      6228      6230      6231      6228      6230      6232      6228      6230      6233
      6231      6230      6232      6231      6230      6233      6232      6230      6233
      6230      6233      6234      6230      6233      6235      6230      6233      6236
      6234      6233      6235      6234      6233      6236      6235      6233      6236
      6233      6236      6237      6233      6236      6238      6233      6236      6262
      6237      6236      6238      6237      6236      6262      6238      6236      6262
      6228      6238      6236      6228      6238      6239      6228      6238      6243
      6236      6238      6239      6236      6238      6243      6239      6238      6243
      6238      6239      6240      6238      6239      6241      6238      6239      6242
      6240      6239      6241      6240      6239      6242      6241      6239      6242
      6238      6243      6244      6238      6243      6245      6238      6243      6246
      6244      6243      6245      6244      6243      6246      6245      6243      6246
      6243      6246      6247      6243      6246      6248      6243      6246      6249
      6247      6246      6248      6247      6246      6249      6248      6246      6249
      6226      6249      6246      6226      6249      6250      6226      6249      6251
      6246      6249      6250      6246      6249      6251      6250      6249      6251
      6220      6251      6249      6220      6251      6252      6220      6251      6256
      6249      6251      6252      6249      6251      6256      6252      6251      6256
      6251      6252      6253      6251      6252      6254      6251      6252      6255
      6253      6252      6254      6253      6252      6255      6254      6252      6255
      6251      6256      6257      6251      6256      6258      6251      6256      6259
      6257      6256      6258      6257      6256      6259      6258      6256      6259
      6213      6259      6256      6213      6259      6260      6213      6259      6261
      6256      6259      6260      6256      6259      6261      6260      6259      6261
      6236      6262      6263      6236      6262      6264      6236      6262      6268
      6263      6262      6264      6263      6262      6268      6264      6262      6268
      6262      6264      6265      6262      6264      6266      6262      6264      6267
      6265      6264      6266      6265      6264      6267      6266      6264      6267
      6262      6268      6269      6262      6268      6270      6262      6268      6271
      6269      6268      6270      6269      6268      6271      6270      6268      6271
      6268      6271      6272      6268      6271      6273      6268      6271      6274
      6272      6271      6273      6272      6271      6274      6273      6271      6274
      6271      6274      6275      6271      6274      6276      6271      6274      6277
      6275      6274      6276      6275      6274      6277      6276      6274      6277
      6274      6277      6278      6274      6277      6279      6274      6277      6283
      6278      6277      6279      6278      6277      6283      6279      6277      6283
      6277      6279      6280      6277      6279      6281      6277      6279      6282
      6280      6279      6281      6280      6279      6282      6281      6279      6282
      6277      6283      6284      6277      6283      6285      6277      6283      6286
      6284      6283      6285      6284      6283      6286      6285      6283      6286
     18966     18965     18967     18966     18965     18968     18966     18965     18969
     18967     18965     18968     18967     18965     18969     18968     18965     18969
     18965     18969     18970     18965     18969     18971     18965     18969     18972
     18970     18969     18971     18970     18969     18972     18971     18969     18972
     18969     18972     18973     18969     18972     18974     18969     18972     18978
     18973     18972     18974     18973     18972     18978     18974     18972     18978
     18976     18975     18977     18976     18975     18978     18976     18975     18979
     18977     18975     18978     18977     18975     18979     18978     18975     18979
     18972     18978     18975     18975     18979     18980     18979     18980     18981
     18979     18980     18982     18979     18980     18983     18981     18980     18982
     18981     18980     18983     18982     18980     18983     18980     18983     18984
     18980     18983     18985     18980     18983     18991     18984     18983     18985
     18984     18983     18991     18985     18983     18991     18983     18985     18986
     18985     18986     18987     18985     18986     18988     18987     18986     18988
     18986     18988     18989     18986     18988     18990     18986     18988     19000
     18989     18988     18990     18989     18988     19000     18990     18988     19000
     18983     18991     18992     18983     18991     18993     18983     18991     18994
     18992     18991     18993     18992     18991     18994     18993     18991     18994
     18991     18994     18995     18994     18995     18996     18994     18995     18997
     18996     18995     18997     18995     18997     18998     18995     18997     18999
     18995     18997     19047     18998     18997     18999     18998     18997     19047
     18999     18997     19047     18988     19000     19001     18988     19000     19002
     18988     19000     19003     19001     19000     19002     19001     19000     19003
     19002     19000     19003     19000     19003     19004     19000     19003     19005
     19000     19003     19006     19004     19003     19005     19004     19003     19006
     19005     19003     19006     19003     19006     19007     19003     19006     19008
     19007     19006     19008     19006     19008     19009     19006     19008     19010
     19009     19008     19010     19008     19010     19011     19008     19010     19012
     19008     19010     19013     19011     19010     19012     19011     19010     19013
     19012     19010     19013     19010     19013     19014     19010     19013     19015
     19014     19013     19015     19013     19015     19016     19013     19015     19017
     19016     19015     19017     19015     19017     19018     19015     19017     19019
     19015     19017     19020     19018     19017     19019     19018     19017     19020
     19019     19017     19020     19017     19020     19021     19017     19020     19022
     19021     19020     19022     19020     19022     19023     19020     19022     19024
     19023     19022     19024     19022     19024     19025     19022     19024     19026
     19022     19024     19027     19025     19024     19026     19025     19024     19027
     19026     19024     19027     19024     19027     19028     19024     19027     19029
     19028     19027     19029     19027     19029     19030     19027     19029     19031
     19030     19029     19031     19029     19031     19032     19029     19031     19033
     19029     19031     19034     19032     19031     19033     19032     19031     19034
     19033     19031     19034     19031     19034     19035     19031     19034     19036
     19031     19034     19037     19035     19034     19036     19035     19034     19037
     19036     19034     19037     19034     19037     19038     19034     19037     19039
     19034     19037     19040     19038     19037     19039     19038     19037     19040
     19039     19037     19040     19037     19040     19041     19037     19040     19042
     19037     19040     19043     19041     19040     19042     19041     19040     19043
     19042     19040     19043     19040     19043     19044     19040     19043     19045
     19040     19043     19046     19044     19043     19045     19044     19043     19046
     19045     19043     19046     18997     19047     19048     18997     19047     19049
     18997     19047     19050     19048     19047     19049     19048     19047     19050
     19049     19047     19050     19047     19050     19051     19047     19050     19052
     19047     19050     19053     19051     19050     19052     19051     19050     19053
     19052     19050     19053     19050     19053     19054     19050     19053     19055
     19050     19053     19056     19054     19053     19055     19054     19053     19056
     19055     19053     19056     19053     19056     19057     19053     19056     19058
     19053     19056     19059     19057     19056     19058     19057     19056     19059
     19058     19056     19059     19056     19059     19060     19056     19059     19061
     19056     19059     19062     19060     19059     19061     19060     19059     19062
     19061     19059     19062     19059     19062     19063     19059     19062     19064
     19059     19062     19065     19063     19062     19064     19063     19062     19065
     19064     19062     19065     19062     19065     19066     19062     19065     19067
     19062     19065     19068     19066     19065     19067     19066     19065     19068
     19067     19065     19068     19065     19068     19069     19065     19068     19070
     19065     19068     19071     19069     19068     19070     19069     19068     19071
     19070     19068     19071     19068     19071     19072     19068     19071     19073
     19068     19071     19074     19072     19071     19073     19072     19071     19074
     19073     19071     19074     19071     19074     19075     19071     19074     19076
     19071     19074     19077     19075     19074     19076     19075     19074     19077
     19076     19074     19077     19074     19077     19078     19074     19077     19079
     19074     19077     19080     19078     19077     19079     19078     19077     19080
     19079     19077     19080     19077     19080     19081     19077     19080     19082
     19077     19080     19083     19081     19080     19082     19081     19080     19083
     19082     19080     19083     19080     19083     19084     19080     19083     19085
     19080     19083     19086     19084     19083     19085     19084     19083     19086
     19085     19083     19086     19083     19086     19087     19083     19086     19088
     19083     19086     19089     19087     19086     19088     19087     19086     19089
     19088     19086     19089     19086     19089     19090     19086     19089     19091
     19086     19089     19092     19090     19089     19091     19090     19089     19092
     19091     19089     19092     19089     19092     19093     19089     19092     19094
     19089     19092     19095     19093     19092     19094     19093     19092     19095
     19094     19092     19095      6288      6287      6289      6288      6287      6291
      6288      6287      6333      6289      6287      6291      6289      6287      6333
      6291      6287      6333      6287      6289      6290      6287      6291      6292
      6287      6291      6293      6287      6291      6294      6292      6291      6293
      6292      6291      6294      6293      6291      6294      6291      6294      6295
      6291      6294      6325      6295      6294      6325      6294      6295      6296
      6294      6295      6297      6296      6295      6297      6295      6297      6298
      6295      6297      6299      6295      6297      6300      6298      6297      6299
      6298      6297      6300      6299      6297      6300      6297      6300      6301
      6297      6300      6302      6297      6300      6323      6301      6300      6302
      6301      6300      6323      6302      6300      6323      6300      6302      6303
      6300      6302      6304      6300      6302      6312      6303      6302      6304
      6303      6302      6312      6304      6302      6312      6302      6304      6305
      6302      6304      6306      6302      6304      6307      6305      6304      6306
      6305      6304      6307      6306      6304      6307      6304      6307      6308
      6304      6307      6309      6304      6307      6310      6308      6307      6309
      6308      6307      6310      6309      6307      6310      6307      6310      6311
      6307      6310      6312      6307      6310      6336      6311      6310      6312
      6311      6310      6336      6312      6310      6336      6302      6312      6310
      6302      6312      6313      6302      6312      6317      6310      6312      6313
      6310      6312      6317      6313      6312      6317      6312      6313      6314
      6312      6313      6315      6312      6313      6316      6314      6313      6315
      6314      6313      6316      6315      6313      6316      6312      6317      6318
      6312      6317      6319      6312      6317      6320      6318      6317      6319
      6318      6317      6320      6319      6317      6320      6317      6320      6321
      6317      6320      6322      6317      6320      6323      6321      6320      6322
      6321      6320      6323      6322      6320      6323      6300      6323      6320
      6300      6323      6324      6300      6323      6325      6320      6323      6324
      6320      6323      6325      6324      6323      6325      6294      6325      6323
      6294      6325      6326      6294      6325      6330      6323      6325      6326
      6323      6325      6330      6326      6325      6330      6325      6326      6327
      6325      6326      6328      6325      6326      6329      6327      6326      6328
      6327      6326      6329      6328      6326      6329      6325      6330      6331
      6325      6330      6332      6325      6330      6333      6331      6330      6332
      6331      6330      6333      6332      6330      6333      6287      6333      6330
      6287      6333      6334      6287      6333      6335      6330      6333      6334
      6330      6333      6335      6334      6333      6335      6310      6336      6337
      6310      6336      6338      6310      6336      6342      6337      6336      6338
      6337      6336      6342      6338      6336      6342      6336      6338      6339
      6336      6338      6340      6336      6338      6341      6339      6338      6340
      6339      6338      6341      6340      6338      6341      6336      6342      6343
      6336      6342      6344      6336      6342      6345      6343      6342      6344
      6343      6342      6345      6344      6342      6345      6342      6345      6346
      6342      6345      6347      6342      6345      6348      6346      6345      6347
      6346      6345      6348      6347      6345      6348      6345      6348      6349
      6345      6348      6350      6345      6348      6351      6349      6348      6350
      6349      6348      6351      6350      6348      6351      6348      6351      6352
      6348      6351      6353      6348      6351      6357      6352      6351      6353
      6352      6351      6357      6353      6351      6357      6351      6353      6354
      6351      6353      6355      6351      6353      6356      6354      6353      6355
      6354      6353      6356      6355      6353      6356      6351      6357      6358
      6351      6357      6359      6351      6357      6360      6358      6357      6359
      6358      6357      6360      6359      6357      6360      6362      6361      6363
      6362      6361      6365      6362      6361      6407      6363      6361      6365
      6363      6361      6407      6365      6361      6407      6361      6363      6364
      6361      6365      6366      6361      6365      6367      6361      6365      6368
      6366      6365      6367      6366      6365      6368      6367      6365      6368
      6365      6368      6369      6365      6368      6399      6369      6368      6399
      6368      6369      6370      6368      6369      6371      6370      6369      6371
      6369      6371      6372      6369      6371      6373      6369      6371      6374
      6372      6371      6373      6372      6371      6374      6373      6371      6374
      6371      6374      6375      6371      6374      6376      6371      6374      6397
      6375      6374      6376      6375      6374      6397      6376      6374      6397
      6374      6376      6377      6374      6376      6378      6374      6376      6386
      6377      6376      6378      6377      6376      6386      6378      6376      6386
      6376      6378      6379      6376      6378      6380      6376      6378      6381
      6379      6378      6380      6379      6378      6381      6380      6378      6381
      6378      6381      6382      6378      6381      6383      6378      6381      6384
      6382      6381      6383      6382      6381      6384      6383      6381      6384
      6381      6384      6385      6381      6384      6386      6381      6384      6410
      6385      6384      6386      6385      6384      6410      6386      6384      6410
      6376      6386      6384      6376      6386      6387      6376      6386      6391
      6384      6386      6387      6384      6386      6391      6387      6386      6391
      6386      6387      6388      6386      6387      6389      6386      6387      6390
      6388      6387      6389      6388      6387      6390      6389      6387      6390
      6386      6391      6392      6386      6391      6393      6386      6391      6394
      6392      6391      6393      6392      6391      6394      6393      6391      6394
      6391      6394      6395      6391      6394      6396      6391      6394      6397
      6395      6394      6396      6395      6394      6397      6396      6394      6397
      6374      6397      6394      6374      6397      6398      6374      6397      6399
      6394      6397      6398      6394      6397      6399      6398      6397      6399
      6368      6399      6397      6368      6399      6400      6368      6399      6404
      6397      6399      6400      6397      6399      6404      6400      6399      6404
      6399      6400      6401      6399      6400      6402      6399      6400      6403
      6401      6400      6402      6401      6400      6403      6402      6400      6403
      6399      6404      6405      6399      6404      6406      6399      6404      6407
      6405      6404      6406      6405      6404      6407      6406      6404      6407
      6361      6407      6404      6361      6407      6408      6361      6407      6409
      6404      6407      6408      6404      6407      6409      6408      6407      6409
      6384      6410      6411      6384      6410      6412      6384      6410      6416
      6411      6410      6412      6411      6410      6416      6412      6410      6416
      6410      6412      6413      6410      6412      6414      6410      6412      6415
      6413      6412      6414      6413      6412      6415      6414      6412      6415
      6410      6416      6417      6410      6416      6418      6410      6416      6419
      6417      6416      6418      6417      6416      6419      6418      6416      6419
      6416      6419      6420      6416      6419      6421      6416      6419      6422
      6420      6419      6421      6420      6419      6422      6421      6419      6422
      6419      6422      6423      6419      6422      6424      6419      6422      6425
      6423      6422      6424      6423      6422      6425      6424      6422      6425
      6422      6425      6426      6422      6425      6427      6422      6425      6431
      6426      6425      6427      6426      6425      6431      6427      6425      6431
      6425      6427      6428      6425      6427      6429      6425      6427      6430
      6428      6427      6429      6428      6427      6430      6429      6427      6430
      6425      6431      6432      6425      6431      6433      6425      6431      6434
      6432      6431      6433      6432      6431      6434      6433      6431      6434
     19097     19096     19098     19097     19096     19099     19097     19096     19100
     19098     19096     19099     19098     19096     19100     19099     19096     19100
     19096     19100     19101     19096     19100     19102     19096     19100     19103
     19101     19100     19102     19101     19100     19103     19102     19100     19103
     19100     19103     19104     19100     19103     19105     19100     19103     19109
     19104     19103     19105     19104     19103     19109     19105     19103     19109
     19107     19106     19108     19107     19106     19109     19107     19106     19110
     19108     19106     19109     19108     19106     19110     19109     19106     19110
     19103     19109     19106     19106     19110     19111     19110     19111     19112
     19110     19111     19113     19110     19111     19114     19112     19111     19113
     19112     19111     19114     19113     19111     19114     19111     19114     19115
     19111     19114     19116     19111     19114     19122     19115     19114     19116
     19115     19114     19122     19116     19114     19122     19114     19116     19117
     19116     19117     19118     19116     19117     19119     19118     19117     19119
     19117     19119     19120     19117     19119     19121     19117     19119     19131
     19120     19119     19121     19120     19119     19131     19121     19119     19131
     19114     19122     19123     19114     19122     19124     19114     19122     19125
     19123     19122     19124     19123     19122     19125     19124     19122     19125
     19122     19125     19126     19125     19126     19127     19125     19126     19128
     19127     19126     19128     19126     19128     19129     19126     19128     19130
     19126     19128     19178     19129     19128     19130     19129     19128     19178
     19130     19128     19178     19119     19131     19132     19119     19131     19133
     19119     19131     19134     19132     19131     19133     19132     19131     19134
     19133     19131     19134     19131     19134     19135     19131     19134     19136
     19131     19134     19137     19135     19134     19136     19135     19134     19137
     19136     19134     19137     19134     19137     19138     19134     19137     19139
     19138     19137     19139     19137     19139     19140     19137     19139     19141
     19140     19139     19141     19139     19141     19142     19139     19141     19143
     19139     19141     19144     19142     19141     19143     19142     19141     19144
     19143     19141     19144     19141     19144     19145     19141     19144     19146
     19145     19144     19146     19144     19146     19147     19144     19146     19148
     19147     19146     19148     19146     19148     19149     19146     19148     19150
     19146     19148     19151     19149     19148     19150     19149     19148     19151
     19150     19148     19151     19148     19151     19152     19148     19151     19153
     19152     19151     19153     19151     19153     19154     19151     19153     19155
     19154     19153     19155     19153     19155     19156     19153     19155     19157
     19153     19155     19158     19156     19155     19157     19156     19155     19158
     19157     19155     19158     19155     19158     19159     19155     19158     19160
     19159     19158     19160     19158     19160     19161     19158     19160     19162
     19161     19160     19162     19160     19162     19163     19160     19162     19164
     19160     19162     19165     19163     19162     19164     19163     19162     19165
     19164     19162     19165     19162     19165     19166     19162     19165     19167
     19162     19165     19168     19166     19165     19167     19166     19165     19168
     19167     19165     19168     19165     19168     19169     19165     19168     19170
     19165     19168     19171     19169     19168     19170     19169     19168     19171
     19170     19168     19171     19168     19171     19172     19168     19171     19173
     19168     19171     19174     19172     19171     19173     19172     19171     19174
     19173     19171     19174     19171     19174     19175     19171     19174     19176
     19171     19174     19177     19175     19174     19176     19175     19174     19177
     19176     19174     19177     19128     19178     19179     19128     19178     19180
     19128     19178     19181     19179     19178     19180     19179     19178     19181
     19180     19178     19181     19178     19181     19182     19178     19181     19183
     19178     19181     19184     19182     19181     19183     19182     19181     19184
     19183     19181     19184     19181     19184     19185     19181     19184     19186
     19181     19184     19187     19185     19184     19186     19185     19184     19187
     19186     19184     19187     19184     19187     19188     19184     19187     19189
     19184     19187     19190     19188     19187     19189     19188     19187     19190
     19189     19187     19190     19187     19190     19191     19187     19190     19192
     19187     19190     19193     19191     19190     19192     19191     19190     19193
     19192     19190     19193     19190     19193     19194     19190     19193     19195
     19190     19193     19196     19194     19193     19195     19194     19193     19196
     19195     19193     19196     19193     19196     19197     19193     19196     19198
     19193     19196     19199     19197     19196     19198     19197     19196     19199
     19198     19196     19199     19196     19199     19200     19196     19199     19201
     19196     19199     19202     19200     19199     19201     19200     19199     19202
     19201     19199     19202     19199     19202     19203     19199     19202     19204
     19199     19202     19205     19203     19202     19204     19203     19202     19205
     19204     19202     19205     19202     19205     19206     19202     19205     19207
     19202     19205     19208     19206     19205     19207     19206     19205     19208
     19207     19205     19208     19205     19208     19209     19205     19208     19210
     19205     19208     19211     19209     19208     19210     19209     19208     19211
     19210     19208     19211     19208     19211     19212     19208     19211     19213
     19208     19211     19214     19212     19211     19213     19212     19211     19214
     19213     19211     19214     19211     19214     19215     19211     19214     19216
     19211     19214     19217     19215     19214     19216     19215     19214     19217
     19216     19214     19217     19214     19217     19218     19214     19217     19219
     19214     19217     19220     19218     19217     19219     19218     19217     19220
     19219     19217     19220     19217     19220     19221     19217     19220     19222
     19217     19220     19223     19221     19220     19222     19221     19220     19223
     19222     19220     19223     19220     19223     19224     19220     19223     19225
     19220     19223     19226     19224     19223     19225     19224     19223     19226
     19225     19223     19226     21008     21007     21012     21008     21007     21016
     21008     21007     21020     21012     21007     21016     21012     21007     21020
     21016     21007     21020     21007     21008     21009     21007     21008     21010
     21007     21008     21011     21009     21008     21010     21009     21008     21011
     21010     21008     21011     21007     21012     21013     21007     21012     21014
     21007     21012     21015     21013     21012     21014     21013     21012     21015
     21014     21012     21015     21007     21016     21017     21007     21016     21018
     21007     21016     21019     21017     21016     21018     21017     21016     21019
     21018     21016     21019     21007     21020     21021     21007     21020     21022
     21007     21020     21023     21021     21020     21022     21021     21020     21023
     21022     21020     21023     21020     21023     21024     21020     21023     21025
     21020     21023     21029     21024     21023     21025     21024     21023     21029
     21025     21023     21029     21027     21026     21028     21027     21026     21029
     21027     21026     21030     21028     21026     21029     21028     21026     21030
     21029     21026     21030     21023     21029     21026     21026     21030     21031
     21030     21031     21032     21030     21031     21033     21030     21031     21034
     21032     21031     21033     21032     21031     21034     21033     21031     21034
     21031     21034     21035     21031     21034     21036     21031     21034     21042
     21035     21034     21036     21035     21034     21042     21036     21034     21042
     21034     21036     21037     21036     21037     21038     21036     21037     21039
     21038     21037     21039     21037     21039     21040     21037     21039     21041
     21037     21039     21051     21040     21039     21041     21040     21039     21051
     21041     21039     21051     21034     21042     21043     21034     21042     21044
     21034     21042     21045     21043     21042     21044     21043     21042     21045
     21044     21042     21045     21042     21045     21046     21045     21046     21047
     21045     21046     21048     21047     21046     21048     21046     21048     21049
     21046     21048     21050     21046     21048     21096     21049     21048     21050
     21049     21048     21096     21050     21048     21096     21039     21051     21052
     21039     21051     21053     21039     21051     21054     21052     21051     21053
     21052     21051     21054     21053     21051     21054     21051     21054     21055
     21051     21054     21056     21051     21054     21057     21055     21054     21056
     21055     21054     21057     21056     21054     21057     21054     21057     21058
     21054     21057     21059     21054     21057     21060     21058     21057     21059
     21058     21057     21060     21059     21057     21060     21057     21060     21061
     21057     21060     21062     21057     21060     21063     21061     21060     21062
     21061     21060     21063     21062     21060     21063     21060     21063     21064
     21060     21063     21065     21060     21063     21066     21064     21063     21065
     21064     21063     21066     21065     21063     21066     21063     21066     21067
     21063     21066     21068     21063     21066     21069     21067     21066     21068
     21067     21066     21069     21068     21066     21069     21066     21069     21070
     21066     21069     21071     21070     21069     21071     21069     21071     21072
     21069     21071     21073     21072     21071     21073     21071     21073     21074
     21071     21073     21075     21071     21073     21076     21074     21073     21075
     21074     21073     21076     21075     21073     21076     21073     21076     21077
     21073     21076     21078     21077     21076     21078     21076     21078     21079
     21076     21078     21080     21079     21078     21080     21078     21080     21081
     21078     21080     21082     21078     21080     21083     21081     21080     21082
     21081     21080     21083     21082     21080     21083     21080     21083     21084
     21080     21083     21085     21080     21083     21086     21084     21083     21085
     21084     21083     21086     21085     21083     21086     21083     21086     21087
     21083     21086     21088     21083     21086     21089     21087     21086     21088
     21087     21086     21089     21088     21086     21089     21086     21089     21090
     21086     21089     21091     21086     21089     21092     21090     21089     21091
     21090     21089     21092     21091     21089     21092     21089     21092     21093
     21089     21092     21094     21089     21092     21095     21093     21092     21094
     21093     21092     21095     21094     21092     21095     21048     21096     21097
     21048     21096     21098     21048     21096     21099     21097     21096     21098
     21097     21096     21099     21098     21096     21099     21096     21099     21100
     21096     21099     21101     21096     21099     21102     21100     21099     21101
     21100     21099     21102     21101     21099     21102     21099     21102     21103
     21099     21102     21104     21099     21102     21105     21103     21102     21104
     21103     21102     21105     21104     21102     21105     21102     21105     21106
     21102     21105     21107     21102     21105     21108     21106     21105     21107
     21106     21105     21108     21107     21105     21108     21105     21108     21109
     21105     21108     21110     21105     21108     21111     21109     21108     21110
     21109     21108     21111     21110     21108     21111     21108     21111     21112
     21108     21111     21113     21108     21111     21114     21112     21111     21113
     21112     21111     21114     21113     21111     21114     21111     21114     21115
     21111     21114     21116     21111     21114     21117     21115     21114     21116
     21115     21114     21117     21116     21114     21117     21114     21117     21118
     21114     21117     21119     21114     21117     21120     21118     21117     21119
     21118     21117     21120     21119     21117     21120     21117     21120     21121
     21117     21120     21122     21117     21120     21123     21121     21120     21122
     21121     21120     21123     21122     21120     21123     21120     21123     21124
     21120     21123     21125     21120     21123     21126     21124     21123     21125
     21124     21123     21126     21125     21123     21126     21123     21126     21127
     21123     21126     21128     21123     21126     21129     21127     21126     21128
     21127     21126     21129     21128     21126     21129     21126     21129     21130
     21126     21129     21131     21126     21129     21132     21130     21129     21131
     21130     21129     21132     21131     21129     21132     21129     21132     21133
     21129     21132     21134     21129     21132     21135     21133     21132     21134
     21133     21132     21135     21134     21132     21135     21132     21135     21136
     21132     21135     21137     21132     21135     21138     21136     21135     21137
     21136     21135     21138     21137     21135     21138     21135     21138     21139
     21135     21138     21140     21135     21138     21141     21139     21138     21140
     21139     21138     21141     21140     21138     21141     21138     21141     21142
     21138     21141     21143     21138     21141     21144     21142     21141     21143
     21142     21141     21144     21143     21141     21144      6436      6435      6437
      6436      6435      6439      6436      6435      6481      6437      6435      6439
      6437      6435      6481      6439      6435      6481      6435      6437      6438
      6435      6439      6440      6435      6439      6441      6435      6439      6442
      6440      6439      6441      6440      6439      6442      6441      6439      6442
      6439      6442      6443      6439      6442      6473      6443      6442      6473
      6442      6443      6444      6442      6443      6445      6444      6443      6445
      6443      6445      6446      6443      6445      6447      6443      6445      6448
      6446      6445      6447      6446      6445      6448      6447      6445      6448
      6445      6448      6449      6445      6448      6450      6445      6448      6471
      6449      6448      6450      6449      6448      6471      6450      6448      6471
      6448      6450      6451      6448      6450      6452      6448      6450      6460
      6451      6450      6452      6451      6450      6460      6452      6450      6460
      6450      6452      6453      6450      6452      6454      6450      6452      6455
      6453      6452      6454      6453      6452      6455      6454      6452      6455
      6452      6455      6456      6452      6455      6457      6452      6455      6458
      6456      6455      6457      6456      6455      6458      6457      6455      6458
      6455      6458      6459      6455      6458      6460      6455      6458      6484
      6459      6458      6460      6459      6458      6484      6460      6458      6484
      6450      6460      6458      6450      6460      6461      6450      6460      6465
      6458      6460      6461      6458      6460      6465      6461      6460      6465
      6460      6461      6462      6460      6461      6463      6460      6461      6464
      6462      6461      6463      6462      6461      6464      6463      6461      6464
      6460      6465      6466      6460      6465      6467      6460      6465      6468
      6466      6465      6467      6466      6465      6468      6467      6465      6468
      6465      6468      6469      6465      6468      6470      6465      6468      6471
      6469      6468      6470      6469      6468      6471      6470      6468      6471
      6448      6471      6468      6448      6471      6472      6448      6471      6473
      6468      6471      6472      6468      6471      6473      6472      6471      6473
      6442      6473      6471      6442      6473      6474      6442      6473      6478
      6471      6473      6474      6471      6473      6478      6474      6473      6478
      6473      6474      6475      6473      6474      6476      6473      6474      6477
      6475      6474      6476      6475      6474      6477      6476      6474      6477
      6473      6478      6479      6473      6478      6480      6473      6478      6481
      6479      6478      6480      6479      6478      6481      6480      6478      6481
      6435      6481      6478      6435      6481      6482      6435      6481      6483
      6478      6481      6482      6478      6481      6483      6482      6481      6483
      6458      6484      6485      6458      6484      6486      6458      6484      6490
      6485      6484      6486      6485      6484      6490      6486      6484      6490
      6484      6486      6487      6484      6486      6488      6484      6486      6489
      6487      6486      6488      6487      6486      6489      6488      6486      6489
      6484      6490      6491      6484      6490      6492      6484      6490      6493
      6491      6490      6492      6491      6490      6493      6492      6490      6493
      6490      6493      6494      6490      6493      6495      6490      6493      6496
      6494      6493      6495      6494      6493      6496      6495      6493      6496
      6493      6496      6497      6493      6496      6498      6493      6496      6499
      6497      6496      6498      6497      6496      6499      6498      6496      6499
      6496      6499      6500      6496      6499      6501      6496      6499      6505
      6500      6499      6501      6500      6499      6505      6501      6499      6505
      6499      6501      6502      6499      6501      6503      6499      6501      6504
      6502      6501      6503      6502      6501      6504      6503      6501      6504
      6499      6505      6506      6499      6505      6507      6499      6505      6508
      6506      6505      6507      6506      6505      6508      6507      6505      6508
     19228     19227     19229     19228     19227     19230     19228     19227     19231
     19229     19227     19230     19229     19227     19231     19230     19227     19231
     19227     19231     19232     19227     19231     19233     19227     19231     19234
     19232     19231     19233     19232     19231     19234     19233     19231     19234
     19231     19234     19235     19231     19234     19236     19231     19234     19240
     19235     19234     19236     19235     19234     19240     19236     19234     19240
     19238     19237     19239     19238     19237     19240     19238     19237     19241
     19239     19237     19240     19239     19237     19241     19240     19237     19241
     19234     19240     19237     19237     19241     19242     19241     19242     19243
     19241     19242     19244     19241     19242     19245     19243     19242     19244
     19243     19242     19245     19244     19242     19245     19242     19245     19246
     19242     19245     19247     19242     19245     19253     19246     19245     19247
     19246     19245     19253     19247     19245     19253     19245     19247     19248
     19247     19248     19249     19247     19248     19250     19249     19248     19250
     19248     19250     19251     19248     19250     19252     19248     19250     19262
     19251     19250     19252     19251     19250     19262     19252     19250     19262
     19245     19253     19254     19245     19253     19255     19245     19253     19256
     19254     19253     19255     19254     19253     19256     19255     19253     19256
     19253     19256     19257     19256     19257     19258     19256     19257     19259
     19258     19257     19259     19257     19259     19260     19257     19259     19261
     19257     19259     19309     19260     19259     19261     19260     19259     19309
     19261     19259     19309     19250     19262     19263     19250     19262     19264
     19250     19262     19265     19263     19262     19264     19263     19262     19265
     19264     19262     19265     19262     19265     19266     19262     19265     19267
     19262     19265     19268     19266     19265     19267     19266     19265     19268
     19267     19265     19268     19265     19268     19269     19265     19268     19270
     19269     19268     19270     19268     19270     19271     19268     19270     19272
     19271     19270     19272     19270     19272     19273     19270     19272     19274
     19270     19272     19275     19273     19272     19274     19273     19272     19275
     19274     19272     19275     19272     19275     19276     19272     19275     19277
     19276     19275     19277     19275     19277     19278     19275     19277     19279
     19278     19277     19279     19277     19279     19280     19277     19279     19281
     19277     19279     19282     19280     19279     19281     19280     19279     19282
     19281     19279     19282     19279     19282     19283     19279     19282     19284
     19283     19282     19284     19282     19284     19285     19282     19284     19286
     19285     19284     19286     19284     19286     19287     19284     19286     19288
     19284     19286     19289     19287     19286     19288     19287     19286     19289
     19288     19286     19289     19286     19289     19290     19286     19289     19291
     19290     19289     19291     19289     19291     19292     19289     19291     19293
     19292     19291     19293     19291     19293     19294     19291     19293     19295
     19291     19293     19296     19294     19293     19295     19294     19293     19296
     19295     19293     19296     19293     19296     19297     19293     19296     19298
     19293     19296     19299     19297     19296     19298     19297     19296     19299
     19298     19296     19299     19296     19299     19300     19296     19299     19301
     19296     19299     19302     19300     19299     19301     19300     19299     19302
     19301     19299     19302     19299     19302     19303     19299     19302     19304
     19299     19302     19305     19303     19302     19304     19303     19302     19305
     19304     19302     19305     19302     19305     19306     19302     19305     19307
     19302     19305     19308     19306     19305     19307     19306     19305     19308
     19307     19305     19308     19259     19309     19310     19259     19309     19311
     19259     19309     19312     19310     19309     19311     19310     19309     19312
     19311     19309     19312     19309     19312     19313     19309     19312     19314
     19309     19312     19315     19313     19312     19314     19313     19312     19315
     19314     19312     19315     19312     19315     19316     19312     19315     19317
     19312     19315     19318     19316     19315     19317     19316     19315     19318
     19317     19315     19318     19315     19318     19319     19315     19318     19320
     19315     19318     19321     19319     19318     19320     19319     19318     19321
     19320     19318     19321     19318     19321     19322     19318     19321     19323
     19318     19321     19324     19322     19321     19323     19322     19321     19324
     19323     19321     19324     19321     19324     19325     19321     19324     19326
     19321     19324     19327     19325     19324     19326     19325     19324     19327
     19326     19324     19327     19324     19327     19328     19324     19327     19329
     19324     19327     19330     19328     19327     19329     19328     19327     19330
     19329     19327     19330     19327     19330     19331     19327     19330     19332
     19327     19330     19333     19331     19330     19332     19331     19330     19333
     19332     19330     19333     19330     19333     19334     19330     19333     19335
     19330     19333     19336     19334     19333     19335     19334     19333     19336
     19335     19333     19336     19333     19336     19337     19333     19336     19338
     19333     19336     19339     19337     19336     19338     19337     19336     19339
     19338     19336     19339     19336     19339     19340     19336     19339     19341
     19336     19339     19342     19340     19339     19341     19340     19339     19342
     19341     19339     19342     19339     19342     19343     19339     19342     19344
     19339     19342     19345     19343     19342     19344     19343     19342     19345
     19344     19342     19345     19342     19345     19346     19342     19345     19347
     19342     19345     19348     19346     19345     19347     19346     19345     19348
     19347     19345     19348     19345     19348     19349     19345     19348     19350
     19345     19348     19351     19349     19348     19350     19349     19348     19351
     19350     19348     19351     19348     19351     19352     19348     19351     19353
     19348     19351     19354     19352     19351     19353     19352     19351     19354
     19353     19351     19354     19351     19354     19355     19351     19354     19356
     19351     19354     19357     19355     19354     19356     19355     19354     19357
     19356     19354     19357      8116      8115      8117      8116      8115      8118
      8116      8115      8119      8117      8115      8118      8117      8115      8119
      8118      8115      8119      8115      8119      8120      8115      8119      8121
      8115      8119      8122      8120      8119      8121      8120      8119      8122
      8121      8119      8122      8119      8122      8123      8119      8122      8124
      8119      8122      8128      8123      8122      8124      8123      8122      8128
      8124      8122      8128      8126      8125      8127      8126      8125      8128
      8126      8125      8129      8127      8125      8128      8127      8125      8129
      8128      8125      8129      8122      8128      8125      8125      8129      8130
      8129      8130      8131      8129      8130      8132      8129      8130      8133
      8131      8130      8132      8131      8130      8133      8132      8130      8133
      8130      8133      8134      8130      8133      8135      8130      8133      8141
      8134      8133      8135      8134      8133      8141      8135      8133      8141
      8133      8135      8136      8135      8136      8137      8135      8136      8138
      8137      8136      8138      8136      8138      8139      8136      8138      8140
      8136      8138      8150      8139      8138      8140      8139      8138      8150
      8140      8138      8150      8133      8141      8142      8133      8141      8143
      8133      8141      8144      8142      8141      8143      8142      8141      8144
      8143      8141      8144      8141      8144      8145      8144      8145      8146
      8144      8145      8147      8146      8145      8147      8145      8147      8148
      8145      8147      8149      8145      8147      8197      8148      8147      8149
      8148      8147      8197      8149      8147      8197      8138      8150      8151
      8138      8150      8152      8138      8150      8153      8151      8150      8152
      8151      8150      8153      8152      8150      8153      8150      8153      8154
      8150      8153      8155      8150      8153      8156      8154      8153      8155
      8154      8153      8156      8155      8153      8156      8153      8156      8157
      8153      8156      8158      8153      8156      8159      8157      8156      8158
      8157      8156      8159      8158      8156      8159      8156      8159      8160
      8156      8159      8161      8156      8159      8162      8160      8159      8161
      8160      8159      8162      8161      8159      8162      8159      8162      8163
      8159      8162      8164      8159      8162      8165      8163      8162      8164
      8163      8162      8165      8164      8162      8165      8162      8165      8166
      8162      8165      8167      8162      8165      8168      8166      8165      8167
      8166      8165      8168      8167      8165      8168      8165      8168      8169
      8165      8168      8170      8169      8168      8170      8168      8170      8171
      8168      8170      8172      8171      8170      8172      8170      8172      8173
      8170      8172      8174      8170      8172      8175      8173      8172      8174
      8173      8172      8175      8174      8172      8175      8172      8175      8176
      8172      8175      8177      8172      8175      8178      8176      8175      8177
      8176      8175      8178      8177      8175      8178      8175      8178      8179
      8175      8178      8180      8175      8178      8181      8179      8178      8180
      8179      8178      8181      8180      8178      8181      8178      8181      8182
      8178      8181      8183      8178      8181      8184      8182      8181      8183
      8182      8181      8184      8183      8181      8184      8181      8184      8185
      8181      8184      8186      8181      8184      8187      8185      8184      8186
      8185      8184      8187      8186      8184      8187      8184      8187      8188
      8184      8187      8189      8184      8187      8190      8188      8187      8189
      8188      8187      8190      8189      8187      8190      8187      8190      8191
      8187      8190      8192      8187      8190      8193      8191      8190      8192
      8191      8190      8193      8192      8190      8193      8190      8193      8194
      8190      8193      8195      8190      8193      8196      8194      8193      8195
      8194      8193      8196      8195      8193      8196      8147      8197      8198
      8147      8197      8199      8147      8197      8200      8198      8197      8199
      8198      8197      8200      8199      8197      8200      8197      8200      8201
      8197      8200      8202      8197      8200      8203      8201      8200      8202
      8201      8200      8203      8202      8200      8203      8200      8203      8204
      8200      8203      8205      8200      8203      8206      8204      8203      8205
      8204      8203      8206      8205      8203      8206      8203      8206      8207
      8203      8206      8208      8203      8206      8209      8207      8206      8208
      8207      8206      8209      8208      8206      8209      8206      8209      8210
      8206      8209      8211      8206      8209      8212      8210      8209      8211
      8210      8209      8212      8211      8209      8212      8209      8212      8213
      8209      8212      8214      8209      8212      8215      8213      8212      8214
      8213      8212      8215      8214      8212      8215      8212      8215      8216
      8212      8215      8217      8212      8215      8218      8216      8215      8217
      8216      8215      8218      8217      8215      8218      8215      8218      8219
      8215      8218      8220      8215      8218      8221      8219      8218      8220
      8219      8218      8221      8220      8218      8221      8218      8221      8222
      8218      8221      8223      8218      8221      8224      8222      8221      8223
      8222      8221      8224      8223      8221      8224      8221      8224      8225
      8221      8224      8226      8221      8224      8227      8225      8224      8226
      8225      8224      8227      8226      8224      8227      8224      8227      8228
      8224      8227      8229      8224      8227      8230      8228      8227      8229
      8228      8227      8230      8229      8227      8230      8227      8230      8231
      8227      8230      8232      8227      8230      8233      8231      8230      8232
      8231      8230      8233      8232      8230      8233      8230      8233      8234
      8230      8233      8235      8230      8233      8236      8234      8233      8235
      8234      8233      8236      8235      8233      8236      8233      8236      8237
      8233      8236      8238      8233      8236      8239      8237      8236      8238
      8237      8236      8239      8238      8236      8239      8236      8239      8240
      8236      8239      8241      8236      8239      8242      8240      8239      8241
      8240      8239      8242      8241      8239      8242      8239      8242      8243
      8239      8242      8244      8239      8242      8245      8243      8242      8244
      8243      8242      8245      8244      8242      8245      8247      8246      8248
      8247      8246      8249      8247      8246      8250      8248      8246      8249
      8248      8246      8250      8249      8246      8250      8246      8250      8251
      8246      8250      8252      8246      8250      8253      8251      8250      8252
      8251      8250      8253      8252      8250      8253      8250      8253      8254
      8250      8253      8255      8250      8253      8259      8254      8253      8255
      8254      8253      8259      8255      8253      8259      8257      8256      8258
      8257      8256      8259      8257      8256      8260      8258      8256      8259
      8258      8256      8260      8259      8256      8260      8253      8259      8256
      8256      8260      8261      8260      8261      8262      8260      8261      8263
      8260      8261      8264      8262      8261      8263      8262      8261      8264
      8263      8261      8264      8261      8264      8265      8261      8264      8266
      8261      8264      8272      8265      8264      8266      8265      8264      8272
      8266      8264      8272      8264      8266      8267      8266      8267      8268
      8266      8267      8269      8268      8267      8269      8267      8269      8270
      8267      8269      8271      8267      8269      8281      8270      8269      8271
      8270      8269      8281      8271      8269      8281      8264      8272      8273
      8264      8272      8274      8264      8272      8275      8273      8272      8274
      8273      8272      8275      8274      8272      8275      8272      8275      8276
      8275      8276      8277      8275      8276      8278      8277      8276      8278
      8276      8278      8279      8276      8278      8280      8276      8278      8328
      8279      8278      8280      8279      8278      8328      8280      8278      8328
      8269      8281      8282      8269      8281      8283      8269      8281      8284
      8282      8281      8283      8282      8281      8284      8283      8281      8284
      8281      8284      8285      8281      8284      8286      8281      8284      8287
      8285      8284      8286      8285      8284      8287      8286      8284      8287
      8284      8287      8288      8284      8287      8289      8284      8287      8290
      8288      8287      8289      8288      8287      8290      8289      8287      8290
      8287      8290      8291      8287      8290      8292      8287      8290      8293
      8291      8290      8292      8291      8290      8293      8292      8290      8293
      8290      8293      8294      8290      8293      8295      8290      8293      8296
      8294      8293      8295      8294      8293      8296      8295      8293      8296
      8293      8296      8297      8293      8296      8298      8293      8296      8299
      8297      8296      8298      8297      8296      8299      8298      8296      8299
      8296      8299      8300      8296      8299      8301      8300      8299      8301
      8299      8301      8302      8299      8301      8303      8302      8301      8303
      8301      8303      8304      8301      8303      8305      8301      8303      8306
      8304      8303      8305      8304      8303      8306      8305      8303      8306
      8303      8306      8307      8303      8306      8308      8303      8306      8309
      8307      8306      8308      8307      8306      8309      8308      8306      8309
      8306      8309      8310      8306      8309      8311      8306      8309      8312
      8310      8309      8311      8310      8309      8312      8311      8309      8312
      8309      8312      8313      8309      8312      8314      8309      8312      8315
      8313      8312      8314      8313      8312      8315      8314      8312      8315
      8312      8315      8316      8312      8315      8317      8312      8315      8318
      8316      8315      8317      8316      8315      8318      8317      8315      8318
      8315      8318      8319      8315      8318      8320      8315      8318      8321
      8319      8318      8320      8319      8318      8321      8320      8318      8321
      8318      8321      8322      8318      8321      8323      8318      8321      8324
      8322      8321      8323      8322      8321      8324      8323      8321      8324
      8321      8324      8325      8321      8324      8326      8321      8324      8327
      8325      8324      8326      8325      8324      8327      8326      8324      8327
      8278      8328      8329      8278      8328      8330      8278      8328      8331
      8329      8328      8330      8329      8328      8331      8330      8328      8331
      8328      8331      8332      8328      8331      8333      8328      8331      8334
      8332      8331      8333      8332      8331      8334      8333      8331      8334
      8331      8334      8335      8331      8334      8336      8331      8334      8337
      8335      8334      8336      8335      8334      8337      8336      8334      8337
      8334      8337      8338      8334      8337      8339      8334      8337      8340
      8338      8337      8339      8338      8337      8340      8339      8337      8340
      8337      8340      8341      8337      8340      8342      8337      8340      8343
      8341      8340      8342      8341      8340      8343      8342      8340      8343
      8340      8343      8344      8340      8343      8345      8340      8343      8346
      8344      8343      8345      8344      8343      8346      8345      8343      8346
      8343      8346      8347      8343      8346      8348      8343      8346      8349
      8347      8346      8348      8347      8346      8349      8348      8346      8349
      8346      8349      8350      8346      8349      8351      8346      8349      8352
      8350      8349      8351      8350      8349      8352      8351      8349      8352
      8349      8352      8353      8349      8352      8354      8349      8352      8355
      8353      8352      8354      8353      8352      8355      8354      8352      8355
      8352      8355      8356      8352      8355      8357      8352      8355      8358
      8356      8355      8357      8356      8355      8358      8357      8355      8358
      8355      8358      8359      8355      8358      8360      8355      8358      8361
      8359      8358      8360      8359      8358      8361      8360      8358      8361
      8358      8361      8362      8358      8361      8363      8358      8361      8364
      8362      8361      8363      8362      8361      8364      8363      8361      8364
      8361      8364      8365      8361      8364      8366      8361      8364      8367
      8365      8364      8366      8365      8364      8367      8366      8364      8367
      8364      8367      8368      8364      8367      8369      8364      8367      8370
      8368      8367      8369      8368      8367      8370      8369      8367      8370
      8367      8370      8371      8367      8370      8372      8367      8370      8373
      8371      8370      8372      8371      8370      8373      8372      8370      8373
      8370      8373      8374      8370      8373      8375      8370      8373      8376
      8374      8373      8375      8374      8373      8376      8375      8373      8376
      6510      6509      6511      6510      6509      6513      6510      6509      6555
      6511      6509      6513      6511      6509      6555      6513      6509      6555
      6509      6511      6512      6509      6513      6514      6509      6513      6515
      6509      6513      6516      6514      6513      6515      6514      6513      6516
      6515      6513      6516      6513      6516      6517      6513      6516      6547
      6517      6516      6547      6516      6517      6518      6516      6517      6519
      6518      6517      6519      6517      6519      6520      6517      6519      6521
      6517      6519      6522      6520      6519      6521      6520      6519      6522
      6521      6519      6522      6519      6522      6523      6519      6522      6524
      6519      6522      6545      6523      6522      6524      6523      6522      6545
      6524      6522      6545      6522      6524      6525      6522      6524      6526
      6522      6524      6534      6525      6524      6526      6525      6524      6534
      6526      6524      6534      6524      6526      6527      6524      6526      6528
      6524      6526      6529      6527      6526      6528      6527      6526      6529
      6528      6526      6529      6526      6529      6530      6526      6529      6531
      6526      6529      6532      6530      6529      6531      6530      6529      6532
      6531      6529      6532      6529      6532      6533      6529      6532      6534
      6529      6532      6558      6533      6532      6534      6533      6532      6558
      6534      6532      6558      6524      6534      6532      6524      6534      6535
      6524      6534      6539      6532      6534      6535      6532      6534      6539
      6535      6534      6539      6534      6535      6536      6534      6535      6537
      6534      6535      6538      6536      6535      6537      6536      6535      6538
      6537      6535      6538      6534      6539      6540      6534      6539      6541
      6534      6539      6542      6540      6539      6541      6540      6539      6542
      6541      6539      6542      6539      6542      6543      6539      6542      6544
      6539      6542      6545      6543      6542      6544      6543      6542      6545
      6544      6542      6545      6522      6545      6542      6522      6545      6546
      6522      6545      6547      6542      6545      6546      6542      6545      6547
      6546      6545      6547      6516      6547      6545      6516      6547      6548
      6516      6547      6552      6545      6547      6548      6545      6547      6552
      6548      6547      6552      6547      6548      6549      6547      6548      6550
      6547      6548      6551      6549      6548      6550      6549      6548      6551
      6550      6548      6551      6547      6552      6553      6547      6552      6554
      6547      6552      6555      6553      6552      6554      6553      6552      6555
      6554      6552      6555      6509      6555      6552      6509      6555      6556
      6509      6555      6557      6552      6555      6556      6552      6555      6557
      6556      6555      6557      6532      6558      6559      6532      6558      6560
      6532      6558      6564      6559      6558      6560      6559      6558      6564
      6560      6558      6564      6558      6560      6561      6558      6560      6562
      6558      6560      6563      6561      6560      6562      6561      6560      6563
      6562      6560      6563      6558      6564      6565      6558      6564      6566
      6558      6564      6567      6565      6564      6566      6565      6564      6567
      6566      6564      6567      6564      6567      6568      6564      6567      6569
      6564      6567      6570      6568      6567      6569      6568      6567      6570
      6569      6567      6570      6567      6570      6571      6567      6570      6572
      6567      6570      6573      6571      6570      6572      6571      6570      6573
      6572      6570      6573      6570      6573      6574      6570      6573      6575
      6570      6573      6579      6574      6573      6575      6574      6573      6579
      6575      6573      6579      6573      6575      6576      6573      6575      6577
      6573      6575      6578      6576      6575      6577      6576      6575      6578
      6577      6575      6578      6573      6579      6580      6573      6579      6581
      6573      6579      6582      6580      6579      6581      6580      6579      6582
      6581      6579      6582     15298     15297     15302     15298     15297     15306
     15298     15297     15310     15302     15297     15306     15302     15297     15310
     15306     15297     15310     15297     15298     15299     15297     15298     15300
     15297     15298     15301     15299     15298     15300     15299     15298     15301
     15300     15298     15301     15297     15302     15303     15297     15302     15304
     15297     15302     15305     15303     15302     15304     15303     15302     15305
     15304     15302     15305     15297     15306     15307     15297     15306     15308
     15297     15306     15309     15307     15306     15308     15307     15306     15309
     15308     15306     15309     15297     15310     15311     15297     15310     15312
     15297     15310     15313     15311     15310     15312     15311     15310     15313
     15312     15310     15313     15310     15313     15314     15310     15313     15315
     15310     15313     15320     15314     15313     15315     15314     15313     15320
     15315     15313     15320     15317     15316     15318     15317     15316     15319
     15317     15316     15320     15318     15316     15319     15318     15316     15320
     15319     15316     15320     15316     15319     15321     15313     15320     15316
     15319     15321     15322     15319     15321     15323     15319     15321     15326
     15322     15321     15323     15322     15321     15326     15323     15321     15326
     15325     15324     15326     15325     15324     15376     15326     15324     15376
     15321     15326     15324     15321     15326     15327     15321     15326     15328
     15324     15326     15327     15324     15326     15328     15327     15326     15328
     15326     15328     15329     15326     15328     15330     15326     15328     15332
     15329     15328     15330     15329     15328     15332     15330     15328     15332
     15328     15330     15331     15328     15332     15333     15328     15332     15334
     15333     15332     15334     15332     15334     15335     15332     15334     15336
     15335     15334     15336     15334     15336     15337     15334     15336     15338
     15334     15336     15339     15337     15336     15338     15337     15336     15339
     15338     15336     15339     15336     15339     15340     15336     15339     15341
     15336     15339     15342     15340     15339     15341     15340     15339     15342
     15341     15339     15342     15339     15342     15343     15339     15342     15344
     15339     15342     15345     15343     15342     15344     15343     15342     15345
     15344     15342     15345     15342     15345     15346     15342     15345     15347
     15342     15345     15348     15346     15345     15347     15346     15345     15348
     15347     15345     15348     15345     15348     15349     15345     15348     15350
     15345     15348     15351     15349     15348     15350     15349     15348     15351
     15350     15348     15351     15348     15351     15352     15348     15351     15353
     15348     15351     15354     15352     15351     15353     15352     15351     15354
     15353     15351     15354     15351     15354     15355     15351     15354     15356
     15351     15354     15357     15355     15354     15356     15355     15354     15357
     15356     15354     15357     15354     15357     15358     15354     15357     15359
     15354     15357     15360     15358     15357     15359     15358     15357     15360
     15359     15357     15360     15357     15360     15361     15357     15360     15362
     15357     15360     15363     15361     15360     15362     15361     15360     15363
     15362     15360     15363     15360     15363     15364     15360     15363     15365
     15360     15363     15366     15364     15363     15365     15364     15363     15366
     15365     15363     15366     15363     15366     15367     15363     15366     15368
     15363     15366     15369     15367     15366     15368     15367     15366     15369
     15368     15366     15369     15366     15369     15370     15366     15369     15371
     15366     15369     15372     15370     15369     15371     15370     15369     15372
     15371     15369     15372     15369     15372     15373     15369     15372     15374
     15369     15372     15375     15373     15372     15374     15373     15372     15375
     15374     15372     15375     15324     15376     15377     15324     15376     15378
     15377     15376     15378     15376     15378     15379     15376     15378     15380
     15376     15378     15381     15379     15378     15380     15379     15378     15381
     15380     15378     15381     15378     15381     15382     15378     15381     15383
     15378     15381     15384     15382     15381     15383     15382     15381     15384
     15383     15381     15384     15381     15384     15385     15381     15384     15386
     15381     15384     15387     15385     15384     15386     15385     15384     15387
     15386     15384     15387     15384     15387     15388     15384     15387     15389
     15384     15387     15390     15388     15387     15389     15388     15387     15390
     15389     15387     15390     15387     15390     15391     15387     15390     15392
     15387     15390     15393     15391     15390     15392     15391     15390     15393
     15392     15390     15393     15390     15393     15394     15390     15393     15395
     15390     15393     15396     15394     15393     15395     15394     15393     15396
     15395     15393     15396     15393     15396     15397     15393     15396     15398
     15393     15396     15399     15397     15396     15398     15397     15396     15399
     15398     15396     15399     15396     15399     15400     15396     15399     15401
     15400     15399     15401     15399     15401     15402     15399     15401     15403
     15402     15401     15403     15401     15403     15404     15401     15403     15405
     15401     15403     15406     15404     15403     15405     15404     15403     15406
     15405     15403     15406     15403     15406     15407     15403     15406     15408
     15403     15406     15409     15407     15406     15408     15407     15406     15409
     15408     15406     15409     15406     15409     15410     15406     15409     15411
     15406     15409     15412     15410     15409     15411     15410     15409     15412
     15411     15409     15412     15409     15412     15413     15409     15412     15414
     15409     15412     15415     15413     15412     15414     15413     15412     15415
     15414     15412     15415     15412     15415     15416     15412     15415     15417
     15412     15415     15418     15416     15415     15417     15416     15415     15418
     15417     15415     15418     15415     15418     15419     15415     15418     15420
     15415     15418     15421     15419     15418     15420     15419     15418     15421
     15420     15418     15421     15418     15421     15422     15418     15421     15423
     15418     15421     15424     15422     15421     15423     15422     15421     15424
     15423     15421     15424     15421     15424     15425     15421     15424     15426
     15421     15424     15427     15425     15424     15426     15425     15424     15427
     15426     15424     15427     19359     19358     19360     19359     19358     19361
     19359     19358     19362     19360     19358     19361     19360     19358     19362
     19361     19358     19362     19358     19362     19363     19358     19362     19364
     19358     19362     19365     19363     19362     19364     19363     19362     19365
     19364     19362     19365     19362     19365     19366     19362     19365     19367
     19362     19365     19371     19366     19365     19367     19366     19365     19371
     19367     19365     19371     19369     19368     19370     19369     19368     19371
     19369     19368     19372     19370     19368     19371     19370     19368     19372
     19371     19368     19372     19365     19371     19368     19368     19372     19373
     19372     19373     19374     19372     19373     19375     19372     19373     19376
     19374     19373     19375     19374     19373     19376     19375     19373     19376
     19373     19376     19377     19373     19376     19378     19373     19376     19384
     19377     19376     19378     19377     19376     19384     19378     19376     19384
     19376     19378     19379     19378     19379     19380     19378     19379     19381
     19380     19379     19381     19379     19381     19382     19379     19381     19383
     19379     19381     19393     19382     19381     19383     19382     19381     19393
     19383     19381     19393     19376     19384     19385     19376     19384     19386
     19376     19384     19387     19385     19384     19386     19385     19384     19387
     19386     19384     19387     19384     19387     19388     19387     19388     19389
     19387     19388     19390     19389     19388     19390     19388     19390     19391
     19388     19390     19392     19388     19390     19440     19391     19390     19392
     19391     19390     19440     19392     19390     19440     19381     19393     19394
     19381     19393     19395     19381     19393     19396     19394     19393     19395
     19394     19393     19396     19395     19393     19396     19393     19396     19397
     19393     19396     19398     19393     19396     19399     19397     19396     19398
     19397     19396     19399     19398     19396     19399     19396     19399     19400
     19396     19399     19401     19400     19399     19401     19399     19401     19402
     19399     19401     19403     19402     19401     19403     19401     19403     19404
     19401     19403     19405     19401     19403     19406     19404     19403     19405
     19404     19403     19406     19405     19403     19406     19403     19406     19407
     19403     19406     19408     19407     19406     19408     19406     19408     19409
     19406     19408     19410     19409     19408     19410     19408     19410     19411
     19408     19410     19412     19408     19410     19413     19411     19410     19412
     19411     19410     19413     19412     19410     19413     19410     19413     19414
     19410     19413     19415     19414     19413     19415     19413     19415     19416
     19413     19415     19417     19416     19415     19417     19415     19417     19418
     19415     19417     19419     19415     19417     19420     19418     19417     19419
     19418     19417     19420     19419     19417     19420     19417     19420     19421
     19417     19420     19422     19421     19420     19422     19420     19422     19423
     19420     19422     19424     19423     19422     19424     19422     19424     19425
     19422     19424     19426     19422     19424     19427     19425     19424     19426
     19425     19424     19427     19426     19424     19427     19424     19427     19428
     19424     19427     19429     19424     19427     19430     19428     19427     19429
     19428     19427     19430     19429     19427     19430     19427     19430     19431
     19427     19430     19432     19427     19430     19433     19431     19430     19432
     19431     19430     19433     19432     19430     19433     19430     19433     19434
     19430     19433     19435     19430     19433     19436     19434     19433     19435
     19434     19433     19436     19435     19433     19436     19433     19436     19437
     19433     19436     19438     19433     19436     19439     19437     19436     19438
     19437     19436     19439     19438     19436     19439     19390     19440     19441
     19390     19440     19442     19390     19440     19443     19441     19440     19442
     19441     19440     19443     19442     19440     19443     19440     19443     19444
     19440     19443     19445     19440     19443     19446     19444     19443     19445
     19444     19443     19446     19445     19443     19446     19443     19446     19447
     19443     19446     19448     19443     19446     19449     19447     19446     19448
     19447     19446     19449     19448     19446     19449     19446     19449     19450
     19446     19449     19451     19446     19449     19452     19450     19449     19451
     19450     19449     19452     19451     19449     19452     19449     19452     19453
     19449     19452     19454     19449     19452     19455     19453     19452     19454
     19453     19452     19455     19454     19452     19455     19452     19455     19456
     19452     19455     19457     19452     19455     19458     19456     19455     19457
     19456     19455     19458     19457     19455     19458     19455     19458     19459
     19455     19458     19460     19455     19458     19461     19459     19458     19460
     19459     19458     19461     19460     19458     19461     19458     19461     19462
     19458     19461     19463     19458     19461     19464     19462     19461     19463
     19462     19461     19464     19463     19461     19464     19461     19464     19465
     19461     19464     19466     19461     19464     19467     19465     19464     19466
     19465     19464     19467     19466     19464     19467     19464     19467     19468
     19464     19467     19469     19464     19467     19470     19468     19467     19469
     19468     19467     19470     19469     19467     19470     19467     19470     19471
     19467     19470     19472     19467     19470     19473     19471     19470     19472
     19471     19470     19473     19472     19470     19473     19470     19473     19474
     19470     19473     19475     19470     19473     19476     19474     19473     19475
     19474     19473     19476     19475     19473     19476     19473     19476     19477
     19473     19476     19478     19473     19476     19479     19477     19476     19478
     19477     19476     19479     19478     19476     19479     19476     19479     19480
     19476     19479     19481     19476     19479     19482     19480     19479     19481
     19480     19479     19482     19481     19479     19482     19479     19482     19483
     19479     19482     19484     19479     19482     19485     19483     19482     19484
     19483     19482     19485     19484     19482     19485     19482     19485     19486
     19482     19485     19487     19482     19485     19488     19486     19485     19487
     19486     19485     19488     19487     19485     19488     15429     15428     15433
     15429     15428     15437     15429     15428     15441     15433     15428     15437
     15433     15428     15441     15437     15428     15441     15428     15429     15430
     15428     15429     15431     15428     15429     15432     15430     15429     15431
     15430     15429     15432     15431     15429     15432     15428     15433     15434
     15428     15433     15435     15428     15433     15436     15434     15433     15435
     15434     15433     15436     15435     15433     15436     15428     15437     15438
     15428     15437     15439     15428     15437     15440     15438     15437     15439
     15438     15437     15440     15439     15437     15440     15428     15441     15442
     15428     15441     15443     15428     15441     15444     15442     15441     15443
     15442     15441     15444     15443     15441     15444     15441     15444     15445
     15441     15444     15446     15441     15444     15451     15445     15444     15446
     15445     15444     15451     15446     15444     15451     15448     15447     15449
     15448     15447     15450     15448     15447     15451     15449     15447     15450
     15449     15447     15451     15450     15447     15451     15447     15450     15452
     15444     15451     15447     15450     15452     15453     15450     15452     15454
     15450     15452     15457     15453     15452     15454     15453     15452     15457
     15454     15452     15457     15456     15455     15457     15456     15455     15507
     15457     15455     15507     15452     15457     15455     15452     15457     15458
     15452     15457     15459     15455     15457     15458     15455     15457     15459
     15458     15457     15459     15457     15459     15460     15457     15459     15461
     15457     15459     15463     15460     15459     15461     15460     15459     15463
     15461     15459     15463     15459     15461     15462     15459     15463     15464
     15459     15463     15465     15464     15463     15465     15463     15465     15466
     15463     15465     15467     15466     15465     15467     15465     15467     15468
     15465     15467     15469     15465     15467     15470     15468     15467     15469
     15468     15467     15470     15469     15467     15470     15467     15470     15471
     15467     15470     15472     15467     15470     15473     15471     15470     15472
     15471     15470     15473     15472     15470     15473     15470     15473     15474
     15470     15473     15475     15470     15473     15476     15474     15473     15475
     15474     15473     15476     15475     15473     15476     15473     15476     15477
     15473     15476     15478     15473     15476     15479     15477     15476     15478
     15477     15476     15479     15478     15476     15479     15476     15479     15480
     15476     15479     15481     15476     15479     15482     15480     15479     15481
     15480     15479     15482     15481     15479     15482     15479     15482     15483
     15479     15482     15484     15479     15482     15485     15483     15482     15484
     15483     15482     15485     15484     15482     15485     15482     15485     15486
     15482     15485     15487     15482     15485     15488     15486     15485     15487
     15486     15485     15488     15487     15485     15488     15485     15488     15489
     15485     15488     15490     15485     15488     15491     15489     15488     15490
     15489     15488     15491     15490     15488     15491     15488     15491     15492
     15488     15491     15493     15488     15491     15494     15492     15491     15493
     15492     15491     15494     15493     15491     15494     15491     15494     15495
     15491     15494     15496     15491     15494     15497     15495     15494     15496
     15495     15494     15497     15496     15494     15497     15494     15497     15498
     15494     15497     15499     15494     15497     15500     15498     15497     15499
     15498     15497     15500     15499     15497     15500     15497     15500     15501
     15497     15500     15502     15497     15500     15503     15501     15500     15502
     15501     15500     15503     15502     15500     15503     15500     15503     15504
     15500     15503     15505     15500     15503     15506     15504     15503     15505
     15504     15503     15506     15505     15503     15506     15455     15507     15508
     15455     15507     15509     15508     15507     15509     15507     15509     15510
     15507     15509     15511     15507     15509     15512     15510     15509     15511
     15510     15509     15512     15511     15509     15512     15509     15512     15513
     15509     15512     15514     15509     15512     15515     15513     15512     15514
     15513     15512     15515     15514     15512     15515     15512     15515     15516
     15512     15515     15517     15512     15515     15518     15516     15515     15517
     15516     15515     15518     15517     15515     15518     15515     15518     15519
     15515     15518     15520     15515     15518     15521     15519     15518     15520
     15519     15518     15521     15520     15518     15521     15518     15521     15522
     15518     15521     15523     15518     15521     15524     15522     15521     15523
     15522     15521     15524     15523     15521     15524     15521     15524     15525
     15521     15524     15526     15521     15524     15527     15525     15524     15526
     15525     15524     15527     15526     15524     15527     15524     15527     15528
     15524     15527     15529     15524     15527     15530     15528     15527     15529
     15528     15527     15530     15529     15527     15530     15527     15530     15531
     15527     15530     15532     15531     15530     15532     15530     15532     15533
     15530     15532     15534     15533     15532     15534     15532     15534     15535
     15532     15534     15536     15532     15534     15537     15535     15534     15536
     15535     15534     15537     15536     15534     15537     15534     15537     15538
     15534     15537     15539     15534     15537     15540     15538     15537     15539
     15538     15537     15540     15539     15537     15540     15537     15540     15541
     15537     15540     15542     15537     15540     15543     15541     15540     15542
     15541     15540     15543     15542     15540     15543     15540     15543     15544
     15540     15543     15545     15540     15543     15546     15544     15543     15545
     15544     15543     15546     15545     15543     15546     15543     15546     15547
     15543     15546     15548     15543     15546     15549     15547     15546     15548
     15547     15546     15549     15548     15546     15549     15546     15549     15550
     15546     15549     15551     15546     15549     15552     15550     15549     15551
     15550     15549     15552     15551     15549     15552     15549     15552     15553
     15549     15552     15554     15549     15552     15555     15553     15552     15554
     15553     15552     15555     15554     15552     15555     15552     15555     15556
     15552     15555     15557     15552     15555     15558     15556     15555     15557
     15556     15555     15558     15557     15555     15558      6584      6583      6585
      6584      6583      6587      6584      6583      6629      6585      6583      6587
      6585      6583      6629      6587      6583      6629      6583      6585      6586
      6583      6587      6588      6583      6587      6589      6583      6587      6590
      6588      6587      6589      6588      6587      6590      6589      6587      6590
      6587      6590      6591      6587      6590      6621      6591      6590      6621
      6590      6591      6592      6590      6591      6593      6592      6591      6593
      6591      6593      6594      6591      6593      6595      6591      6593      6596
      6594      6593      6595      6594      6593      6596      6595      6593      6596
      6593      6596      6597      6593      6596      6598      6593      6596      6619
      6597      6596      6598      6597      6596      6619      6598      6596      6619
      6596      6598      6599      6596      6598      6600      6596      6598      6608
      6599      6598      6600      6599      6598      6608      6600      6598      6608
      6598      6600      6601      6598      6600      6602      6598      6600      6603
      6601      6600      6602      6601      6600      6603      6602      6600      6603
      6600      6603      6604      6600      6603      6605      6600      6603      6606
      6604      6603      6605      6604      6603      6606      6605      6603      6606
      6603      6606      6607      6603      6606      6608      6603      6606      6632
      6607      6606      6608      6607      6606      6632      6608      6606      6632
      6598      6608      6606      6598      6608      6609      6598      6608      6613
      6606      6608      6609      6606      6608      6613      6609      6608      6613
      6608      6609      6610      6608      6609      6611      6608      6609      6612
      6610      6609      6611      6610      6609      6612      6611      6609      6612
      6608      6613      6614      6608      6613      6615      6608      6613      6616
      6614      6613      6615      6614      6613      6616      6615      6613      6616
      6613      6616      6617      6613      6616      6618      6613      6616      6619
      6617      6616      6618      6617      6616      6619      6618      6616      6619
      6596      6619      6616      6596      6619      6620      6596      6619      6621
      6616      6619      6620      6616      6619      6621      6620      6619      6621
      6590      6621      6619      6590      6621      6622      6590      6621      6626
      6619      6621      6622      6619      6621      6626      6622      6621      6626
      6621      6622      6623      6621      6622      6624      6621      6622      6625
      6623      6622      6624      6623      6622      6625      6624      6622      6625
      6621      6626      6627      6621      6626      6628      6621      6626      6629
      6627      6626      6628      6627      6626      6629      6628      6626      6629
      6583      6629      6626      6583      6629      6630      6583      6629      6631
      6626      6629      6630      6626      6629      6631      6630      6629      6631
      6606      6632      6633      6606      6632      6634      6606      6632      6638
      6633      6632      6634      6633      6632      6638      6634      6632      6638
      6632      6634      6635      6632      6634      6636      6632      6634      6637
      6635      6634      6636      6635      6634      6637      6636      6634      6637
      6632      6638      6639      6632      6638      6640      6632      6638      6641
      6639      6638      6640      6639      6638      6641      6640      6638      6641
      6638      6641      6642      6638      6641      6643      6638      6641      6644
      6642      6641      6643      6642      6641      6644      6643      6641      6644
      6641      6644      6645      6641      6644      6646      6641      6644      6647
      6645      6644      6646      6645      6644      6647      6646      6644      6647
      6644      6647      6648      6644      6647      6649      6644      6647      6653
      6648      6647      6649      6648      6647      6653      6649      6647      6653
      6647      6649      6650      6647      6649      6651      6647      6649      6652
      6650      6649      6651      6650      6649      6652      6651      6649      6652
      6647      6653      6654      6647      6653      6655      6647      6653      6656
      6654      6653      6655      6654      6653      6656      6655      6653      6656
     15560     15559     15564     15560     15559     15568     15560     15559     15572
     15564     15559     15568     15564     15559     15572     15568     15559     15572
     15559     15560     15561     15559     15560     15562     15559     15560     15563
     15561     15560     15562     15561     15560     15563     15562     15560     15563
     15559     15564     15565     15559     15564     15566     15559     15564     15567
     15565     15564     15566     15565     15564     15567     15566     15564     15567
     15559     15568     15569     15559     15568     15570     15559     15568     15571
     15569     15568     15570     15569     15568     15571     15570     15568     15571
     15559     15572     15573     15559     15572     15574     15559     15572     15575
     15573     15572     15574     15573     15572     15575     15574     15572     15575
     15572     15575     15576     15572     15575     15577     15572     15575     15582
     15576     15575     15577     15576     15575     15582     15577     15575     15582
     15579     15578     15580     15579     15578     15581     15579     15578     15582
     15580     15578     15581     15580     15578     15582     15581     15578     15582
     15578     15581     15583     15575     15582     15578     15581     15583     15584
     15581     15583     15585     15581     15583     15588     15584     15583     15585
     15584     15583     15588     15585     15583     15588     15587     15586     15588
     15587     15586     15638     15588     15586     15638     15583     15588     15586
     15583     15588     15589     15583     15588     15590     15586     15588     15589
     15586     15588     15590     15589     15588     15590     15588     15590     15591
     15588     15590     15592     15588     15590     15594     15591     15590     15592
     15591     15590     15594     15592     15590     15594     15590     15592     15593
     15590     15594     15595     15590     15594     15596     15595     15594     15596
     15594     15596     15597     15594     15596     15598     15597     15596     15598
     15596     15598     15599     15596     15598     15600     15596     15598     15601
     15599     15598     15600     15599     15598     15601     15600     15598     15601
     15598     15601     15602     15598     15601     15603     15598     15601     15604
     15602     15601     15603     15602     15601     15604     15603     15601     15604
     15601     15604     15605     15601     15604     15606     15601     15604     15607
     15605     15604     15606     15605     15604     15607     15606     15604     15607
     15604     15607     15608     15604     15607     15609     15604     15607     15610
     15608     15607     15609     15608     15607     15610     15609     15607     15610
     15607     15610     15611     15607     15610     15612     15607     15610     15613
     15611     15610     15612     15611     15610     15613     15612     15610     15613
     15610     15613     15614     15610     15613     15615     15610     15613     15616
     15614     15613     15615     15614     15613     15616     15615     15613     15616
     15613     15616     15617     15613     15616     15618     15613     15616     15619
     15617     15616     15618     15617     15616     15619     15618     15616     15619
     15616     15619     15620     15616     15619     15621     15616     15619     15622
     15620     15619     15621     15620     15619     15622     15621     15619     15622
     15619     15622     15623     15619     15622     15624     15619     15622     15625
     15623     15622     15624     15623     15622     15625     15624     15622     15625
     15622     15625     15626     15622     15625     15627     15622     15625     15628
     15626     15625     15627     15626     15625     15628     15627     15625     15628
     15625     15628     15629     15625     15628     15630     15625     15628     15631
     15629     15628     15630     15629     15628     15631     15630     15628     15631
     15628     15631     15632     15628     15631     15633     15628     15631     15634
     15632     15631     15633     15632     15631     15634     15633     15631     15634
     15631     15634     15635     15631     15634     15636     15631     15634     15637
     15635     15634     15636     15635     15634     15637     15636     15634     15637
     15586     15638     15639     15586     15638     15640     15639     15638     15640
     15638     15640     15641     15638     15640     15642     15638     15640     15643
     15641     15640     15642     15641     15640     15643     15642     15640     15643
     15640     15643     15644     15640     15643     15645     15640     15643     15646
     15644     15643     15645     15644     15643     15646     15645     15643     15646
     15643     15646     15647     15643     15646     15648     15643     15646     15649
     15647     15646     15648     15647     15646     15649     15648     15646     15649
     15646     15649     15650     15646     15649     15651     15646     15649     15652
     15650     15649     15651     15650     15649     15652     15651     15649     15652
     15649     15652     15653     15649     15652     15654     15649     15652     15655
     15653     15652     15654     15653     15652     15655     15654     15652     15655
     15652     15655     15656     15652     15655     15657     15652     15655     15658
     15656     15655     15657     15656     15655     15658     15657     15655     15658
     15655     15658     15659     15655     15658     15660     15655     15658     15661
     15659     15658     15660     15659     15658     15661     15660     15658     15661
     15658     15661     15662     15658     15661     15663     15662     15661     15663
     15661     15663     15664     15661     15663     15665     15664     15663     15665
     15663     15665     15666     15663     15665     15667     15663     15665     15668
     15666     15665     15667     15666     15665     15668     15667     15665     15668
     15665     15668     15669     15665     15668     15670     15665     15668     15671
     15669     15668     15670     15669     15668     15671     15670     15668     15671
     15668     15671     15672     15668     15671     15673     15668     15671     15674
     15672     15671     15673     15672     15671     15674     15673     15671     15674
     15671     15674     15675     15671     15674     15676     15671     15674     15677
     15675     15674     15676     15675     15674     15677     15676     15674     15677
     15674     15677     15678     15674     15677     15679     15674     15677     15680
     15678     15677     15679     15678     15677     15680     15679     15677     15680
     15677     15680     15681     15677     15680     15682     15677     15680     15683
     15681     15680     15682     15681     15680     15683     15682     15680     15683
     15680     15683     15684     15680     15683     15685     15680     15683     15686
     15684     15683     15685     15684     15683     15686     15685     15683     15686
     15683     15686     15687     15683     15686     15688     15683     15686     15689
     15687     15686     15688     15687     15686     15689     15688     15686     15689
     15691     15690     15695     15691     15690     15699     15691     15690     15703
     15695     15690     15699     15695     15690     15703     15699     15690     15703
     15690     15691     15692     15690     15691     15693     15690     15691     15694
     15692     15691     15693     15692     15691     15694     15693     15691     15694
     15690     15695     15696     15690     15695     15697     15690     15695     15698
     15696     15695     15697     15696     15695     15698     15697     15695     15698
     15690     15699     15700     15690     15699     15701     15690     15699     15702
     15700     15699     15701     15700     15699     15702     15701     15699     15702
     15690     15703     15704     15690     15703     15705     15690     15703     15706
     15704     15703     15705     15704     15703     15706     15705     15703     15706
     15703     15706     15707     15703     15706     15708     15703     15706     15713
     15707     15706     15708     15707     15706     15713     15708     15706     15713
     15710     15709     15711     15710     15709     15712     15710     15709     15713
     15711     15709     15712     15711     15709     15713     15712     15709     15713
     15709     15712     15714     15706     15713     15709     15712     15714     15715
     15712     15714     15716     15712     15714     15719     15715     15714     15716
     15715     15714     15719     15716     15714     15719     15718     15717     15719
     15718     15717     15769     15719     15717     15769     15714     15719     15717
     15714     15719     15720     15714     15719     15721     15717     15719     15720
     15717     15719     15721     15720     15719     15721     15719     15721     15722
     15719     15721     15723     15719     15721     15725     15722     15721     15723
     15722     15721     15725     15723     15721     15725     15721     15723     15724
     15721     15725     15726     15721     15725     15727     15726     15725     15727
     15725     15727     15728     15725     15727     15729     15728     15727     15729
     15727     15729     15730     15727     15729     15731     15727     15729     15732
     15730     15729     15731     15730     15729     15732     15731     15729     15732
     15729     15732     15733     15729     15732     15734     15729     15732     15735
     15733     15732     15734     15733     15732     15735     15734     15732     15735
     15732     15735     15736     15732     15735     15737     15732     15735     15738
     15736     15735     15737     15736     15735     15738     15737     15735     15738
     15735     15738     15739     15735     15738     15740     15735     15738     15741
     15739     15738     15740     15739     15738     15741     15740     15738     15741
     15738     15741     15742     15738     15741     15743     15738     15741     15744
     15742     15741     15743     15742     15741     15744     15743     15741     15744
     15741     15744     15745     15741     15744     15746     15741     15744     15747
     15745     15744     15746     15745     15744     15747     15746     15744     15747
     15744     15747     15748     15744     15747     15749     15744     15747     15750
     15748     15747     15749     15748     15747     15750     15749     15747     15750
     15747     15750     15751     15747     15750     15752     15747     15750     15753
     15751     15750     15752     15751     15750     15753     15752     15750     15753
     15750     15753     15754     15750     15753     15755     15750     15753     15756
     15754     15753     15755     15754     15753     15756     15755     15753     15756
     15753     15756     15757     15753     15756     15758     15753     15756     15759
     15757     15756     15758     15757     15756     15759     15758     15756     15759
     15756     15759     15760     15756     15759     15761     15756     15759     15762
     15760     15759     15761     15760     15759     15762     15761     15759     15762
     15759     15762     15763     15759     15762     15764     15759     15762     15765
     15763     15762     15764     15763     15762     15765     15764     15762     15765
     15762     15765     15766     15762     15765     15767     15762     15765     15768
     15766     15765     15767     15766     15765     15768     15767     15765     15768
     15717     15769     15770     15717     15769     15771     15770     15769     15771
     15769     15771     15772     15769     15771     15773     15769     15771     15774
     15772     15771     15773     15772     15771     15774     15773     15771     15774
     15771     15774     15775     15771     15774     15776     15771     15774     15777
     15775     15774     15776     15775     15774     15777     15776     15774     15777
     15774     15777     15778     15774     15777     15779     15774     15777     15780
     15778     15777     15779     15778     15777     15780     15779     15777     15780
     15777     15780     15781     15777     15780     15782     15777     15780     15783
     15781     15780     15782     15781     15780     15783     15782     15780     15783
     15780     15783     15784     15780     15783     15785     15780     15783     15786
     15784     15783     15785     15784     15783     15786     15785     15783     15786
     15783     15786     15787     15783     15786     15788     15783     15786     15789
     15787     15786     15788     15787     15786     15789     15788     15786     15789
     15786     15789     15790     15786     15789     15791     15786     15789     15792
     15790     15789     15791     15790     15789     15792     15791     15789     15792
     15789     15792     15793     15789     15792     15794     15793     15792     15794
     15792     15794     15795     15792     15794     15796     15795     15794     15796
     15794     15796     15797     15794     15796     15798     15794     15796     15799
     15797     15796     15798     15797     15796     15799     15798     15796     15799
     15796     15799     15800     15796     15799     15801     15796     15799     15802
     15800     15799     15801     15800     15799     15802     15801     15799     15802
     15799     15802     15803     15799     15802     15804     15799     15802     15805
     15803     15802     15804     15803     15802     15805     15804     15802     15805
     15802     15805     15806     15802     15805     15807     15802     15805     15808
     15806     15805     15807     15806     15805     15808     15807     15805     15808
     15805     15808     15809     15805     15808     15810     15805     15808     15811
     15809     15808     15810     15809     15808     15811     15810     15808     15811
     15808     15811     15812     15808     15811     15813     15808     15811     15814
     15812     15811     15813     15812     15811     15814     15813     15811     15814
     15811     15814     15815     15811     15814     15816     15811     15814     15817
     15815     15814     15816     15815     15814     15817     15816     15814     15817
     15814     15817     15818     15814     15817     15819     15814     15817     15820
     15818     15817     15819     15818     15817     15820     15819     15817     15820
      6658      6657      6659      6658      6657      6661      6658      6657      6703
      6659      6657      6661      6659      6657      6703      6661      6657      6703
      6657      6659      6660      6657      6661      6662      6657      6661      6663
      6657      6661      6664      6662      6661      6663      6662      6661      6664
      6663      6661      6664      6661      6664      6665      6661      6664      6695
      6665      6664      6695      6664      6665      6666      6664      6665      6667
      6666      6665      6667      6665      6667      6668      6665      6667      6669
      6665      6667      6670      6668      6667      6669      6668      6667      6670
      6669      6667      6670      6667      6670      6671      6667      6670      6672
      6667      6670      6693      6671      6670      6672      6671      6670      6693
      6672      6670      6693      6670      6672      6673      6670      6672      6674
      6670      6672      6682      6673      6672      6674      6673      6672      6682
      6674      6672      6682      6672      6674      6675      6672      6674      6676
      6672      6674      6677      6675      6674      6676      6675      6674      6677
      6676      6674      6677      6674      6677      6678      6674      6677      6679
      6674      6677      6680      6678      6677      6679      6678      6677      6680
      6679      6677      6680      6677      6680      6681      6677      6680      6682
      6677      6680      6706      6681      6680      6682      6681      6680      6706
      6682      6680      6706      6672      6682      6680      6672      6682      6683
      6672      6682      6687      6680      6682      6683      6680      6682      6687
      6683      6682      6687      6682      6683      6684      6682      6683      6685
      6682      6683      6686      6684      6683      6685      6684      6683      6686
      6685      6683      6686      6682      6687      6688      6682      6687      6689
      6682      6687      6690      6688      6687      6689      6688      6687      6690
      6689      6687      6690      6687      6690      6691      6687      6690      6692
      6687      6690      6693      6691      6690      6692      6691      6690      6693
      6692      6690      6693      6670      6693      6690      6670      6693      6694
      6670      6693      6695      6690      6693      6694      6690      6693      6695
      6694      6693      6695      6664      6695      6693      6664      6695      6696
      6664      6695      6700      6693      6695      6696      6693      6695      6700
      6696      6695      6700      6695      6696      6697      6695      6696      6698
      6695      6696      6699      6697      6696      6698      6697      6696      6699
      6698      6696      6699      6695      6700      6701      6695      6700      6702
      6695      6700      6703      6701      6700      6702      6701      6700      6703
      6702      6700      6703      6657      6703      6700      6657      6703      6704
      6657      6703      6705      6700      6703      6704      6700      6703      6705
      6704      6703      6705      6680      6706      6707      6680      6706      6708
      6680      6706      6712      6707      6706      6708      6707      6706      6712
      6708      6706      6712      6706      6708      6709      6706      6708      6710
      6706      6708      6711      6709      6708      6710      6709      6708      6711
      6710      6708      6711      6706      6712      6713      6706      6712      6714
      6706      6712      6715      6713      6712      6714      6713      6712      6715
      6714      6712      6715      6712      6715      6716      6712      6715      6717
      6712      6715      6718      6716      6715      6717      6716      6715      6718
      6717      6715      6718      6715      6718      6719      6715      6718      6720
      6715      6718      6721      6719      6718      6720      6719      6718      6721
      6720      6718      6721      6718      6721      6722      6718      6721      6723
      6718      6721      6727      6722      6721      6723      6722      6721      6727
      6723      6721      6727      6721      6723      6724      6721      6723      6725
      6721      6723      6726      6724      6723      6725      6724      6723      6726
      6725      6723      6726      6721      6727      6728      6721      6727      6729
      6721      6727      6730      6728      6727      6729      6728      6727      6730
      6729      6727      6730      9918      9917      9921      9918      9917      9925
      9918      9917      9929      9921      9917      9925      9921      9917      9929
      9925      9917      9929      9917      9918      9919      9917      9918      9920
      9917      9918      9933      9919      9918      9920      9919      9918      9933
      9920      9918      9933      9917      9921      9922      9917      9921      9923
      9917      9921      9924      9922      9921      9923      9922      9921      9924
      9923      9921      9924      9917      9925      9926      9917      9925      9927
      9917      9925      9928      9926      9925      9927      9926      9925      9928
      9927      9925      9928      9917      9929      9930      9917      9929      9931
      9917      9929      9932      9930      9929      9931      9930      9929      9932
      9931      9929      9932      9918      9933      9934      9918      9933      9935
      9918      9933      9939      9934      9933      9935      9934      9933      9939
      9935      9933      9939      9937      9936      9938      9937      9936      9939
      9937      9936      9940      9938      9936      9939      9938      9936      9940
      9939      9936      9940      9933      9939      9936      9936      9940      9941
      9940      9941      9942      9940      9941      9943      9940      9941      9944
      9942      9941      9943      9942      9941      9944      9943      9941      9944
      9941      9944      9945      9941      9944      9946      9941      9944      9952
      9945      9944      9946      9945      9944      9952      9946      9944      9952
      9944      9946      9947      9946      9947      9948      9946      9947      9949
      9948      9947      9949      9947      9949      9950      9947      9949      9951
      9947      9949      9961      9950      9949      9951      9950      9949      9961
      9951      9949      9961      9944      9952      9953      9944      9952      9954
      9944      9952      9955      9953      9952      9954      9953      9952      9955
      9954      9952      9955      9952      9955      9956      9955      9956      9957
      9955      9956      9958      9957      9956      9958      9956      9958      9959
      9956      9958      9960      9956      9958     10008      9959      9958      9960
      9959      9958     10008      9960      9958     10008      9949      9961      9962
      9949      9961      9963      9949      9961      9964      9962      9961      9963
      9962      9961      9964      9963      9961      9964      9961      9964      9965
      9961      9964      9966      9961      9964      9967      9965      9964      9966
      9965      9964      9967      9966      9964      9967      9964      9967      9968
      9964      9967      9969      9968      9967      9969      9967      9969      9970
      9967      9969      9971      9970      9969      9971      9969      9971      9972
      9969      9971      9973      9969      9971      9974      9972      9971      9973
      9972      9971      9974      9973      9971      9974      9971      9974      9975
      9971      9974      9976      9975      9974      9976      9974      9976      9977
      9974      9976      9978      9977      9976      9978      9976      9978      9979
      9976      9978      9980      9976      9978      9981      9979      9978      9980
      9979      9978      9981      9980      9978      9981      9978      9981      9982
      9978      9981      9983      9982      9981      9983      9981      9983      9984
      9981      9983      9985      9984      9983      9985      9983      9985      9986
      9983      9985      9987      9983      9985      9988      9986      9985      9987
      9986      9985      9988      9987      9985      9988      9985      9988      9989
      9985      9988      9990      9989      9988      9990      9988      9990      9991
      9988      9990      9992      9991      9990      9992      9990      9992      9993
      9990      9992      9994      9990      9992      9995      9993      9992      9994
      9993      9992      9995      9994      9992      9995      9992      9995      9996
      9992      9995      9997      9992      9995      9998      9996      9995      9997
      9996      9995      9998      9997      9995      9998      9995      9998      9999
      9995      9998     10000      9995      9998     10001      9999      9998     10000
      9999      9998     10001     10000      9998     10001      9998     10001     10002
      9998     10001     10003      9998     10001     10004     10002     10001     10003
     10002     10001     10004     10003     10001     10004     10001     10004     10005
     10001     10004     10006     10001     10004     10007     10005     10004     10006
     10005     10004     10007     10006     10004     10007      9958     10008     10009
      9958     10008     10010      9958     10008     10011     10009     10008     10010
     10009     10008     10011     10010     10008     10011     10008     10011     10012
     10008     10011     10013     10008     10011     10014     10012     10011     10013
     10012     10011     10014     10013     10011     10014     10011     10014     10015
     10011     10014     10016     10011     10014     10017     10015     10014     10016
     10015     10014     10017     10016     10014     10017     10014     10017     10018
     10014     10017     10019     10014     10017     10020     10018     10017     10019
     10018     10017     10020     10019     10017     10020     10017     10020     10021
     10017     10020     10022     10017     10020     10023     10021     10020     10022
     10021     10020     10023     10022     10020     10023     10020     10023     10024
     10020     10023     10025     10020     10023     10026     10024     10023     10025
     10024     10023     10026     10025     10023     10026     10023     10026     10027
     10023     10026     10028     10023     10026     10029     10027     10026     10028
     10027     10026     10029     10028     10026     10029     10026     10029     10030
     10026     10029     10031     10026     10029     10032     10030     10029     10031
     10030     10029     10032     10031     10029     10032     10029     10032     10033
     10029     10032     10034     10029     10032     10035     10033     10032     10034
     10033     10032     10035     10034     10032     10035     10032     10035     10036
     10032     10035     10037     10032     10035     10038     10036     10035     10037
     10036     10035     10038     10037     10035     10038     10035     10038     10039
     10035     10038     10040     10035     10038     10041     10039     10038     10040
     10039     10038     10041     10040     10038     10041     10038     10041     10042
     10038     10041     10043     10038     10041     10044     10042     10041     10043
     10042     10041     10044     10043     10041     10044     10041     10044     10045
     10041     10044     10046     10041     10044     10047     10045     10044     10046
     10045     10044     10047     10046     10044     10047     10044     10047     10048
     10044     10047     10049     10044     10047     10050     10048     10047     10049
     10048     10047     10050     10049     10047     10050     10047     10050     10051
     10047     10050     10052     10047     10050     10053     10051     10050     10052
     10051     10050     10053     10052     10050     10053     10050     10053     10054
     10050     10053     10055     10050     10053     10056     10054     10053     10055
     10054     10053     10056     10055     10053     10056      6732      6731      6733
      6732      6731      6735      6732      6731      6777      6733      6731      6735
      6733      6731      6777      6735      6731      6777      6731      6733      6734
      6731      6735      6736      6731      6735      6737      6731      6735      6738
      6736      6735      6737      6736      6735      6738      6737      6735      6738
      6735      6738      6739      6735      6738      6769      6739      6738      6769
      6738      6739      6740      6738      6739      6741      6740      6739      6741
      6739      6741      6742      6739      6741      6743      6739      6741      6744
      6742      6741      6743      6742      6741      6744      6743      6741      6744
      6741      6744      6745      6741      6744      6746      6741      6744      6767
      6745      6744      6746      6745      6744      6767      6746      6744      6767
      6744      6746      6747      6744      6746      6748      6744      6746      6756
      6747      6746      6748      6747      6746      6756      6748      6746      6756
      6746      6748      6749      6746      6748      6750      6746      6748      6751
      6749      6748      6750      6749      6748      6751      6750      6748      6751
      6748      6751      6752      6748      6751      6753      6748      6751      6754
      6752      6751      6753      6752      6751      6754      6753      6751      6754
      6751      6754      6755      6751      6754      6756      6751      6754      6780
      6755      6754      6756      6755      6754      6780      6756      6754      6780
      6746      6756      6754      6746      6756      6757      6746      6756      6761
      6754      6756      6757      6754      6756      6761      6757      6756      6761
      6756      6757      6758      6756      6757      6759      6756      6757      6760
      6758      6757      6759      6758      6757      6760      6759      6757      6760
      6756      6761      6762      6756      6761      6763      6756      6761      6764
      6762      6761      6763      6762      6761      6764      6763      6761      6764
      6761      6764      6765      6761      6764      6766      6761      6764      6767
      6765      6764      6766      6765      6764      6767      6766      6764      6767
      6744      6767      6764      6744      6767      6768      6744      6767      6769
      6764      6767      6768      6764      6767      6769      6768      6767      6769
      6738      6769      6767      6738      6769      6770      6738      6769      6774
      6767      6769      6770      6767      6769      6774      6770      6769      6774
      6769      6770      6771      6769      6770      6772      6769      6770      6773
      6771      6770      6772      6771      6770      6773      6772      6770      6773
      6769      6774      6775      6769      6774      6776      6769      6774      6777
      6775      6774      6776      6775      6774      6777      6776      6774      6777
      6731      6777      6774      6731      6777      6778      6731      6777      6779
      6774      6777      6778      6774      6777      6779      6778      6777      6779
      6754      6780      6781      6754      6780      6782      6754      6780      6786
      6781      6780      6782      6781      6780      6786      6782      6780      6786
      6780      6782      6783      6780      6782      6784      6780      6782      6785
      6783      6782      6784      6783      6782      6785      6784      6782      6785
      6780      6786      6787      6780      6786      6788      6780      6786      6789
      6787      6786      6788      6787      6786      6789      6788      6786      6789
      6786      6789      6790      6786      6789      6791      6786      6789      6792
      6790      6789      6791      6790      6789      6792      6791      6789      6792
      6789      6792      6793      6789      6792      6794      6789      6792      6795
      6793      6792      6794      6793      6792      6795      6794      6792      6795
      6792      6795      6796      6792      6795      6797      6792      6795      6801
      6796      6795      6797      6796      6795      6801      6797      6795      6801
      6795      6797      6798      6795      6797      6799      6795      6797      6800
      6798      6797      6799      6798      6797      6800      6799      6797      6800
      6795      6801      6802      6795      6801      6803      6795      6801      6804
      6802      6801      6803      6802      6801      6804      6803      6801      6804
     22312     22311     22313     22315     22314     22316     22318     22317     22319
     22321     22320     22322     22324     22323     22325     22327     22326     22328
     22330     22329     22331     22333     22332     22334     22336     22335     22337
     22339     22338     22340     22342     22341     22343     22345     22344     22346
     22348     22347     22349     22351     22350     22352     22354     22353     22355
     22357     22356     22358     22360     22359     22361     22363     22362     22364
     22366     22365     22367     22369     22368     22370     22372     22371     22373
     22375     22374     22376     22378     22377     22379     22381     22380     22382
     22384     22383     22385     22387     22386     22388     22390     22389     22391
     22393     22392     22394     22396     22395     22397     22399     22398     22400
     22402     22401     22403     22405     22404     22406     22408     22407     22409
     22411     22410     22412     22414     22413     22415     22417     22416     22418
     22420     22419     22421     22423     22422     22424     22426     22425     22427
     22429     22428     22430     22432     22431     22433     22435     22434     22436
     22438     22437     22439     22441     22440     22442     22444     22443     22445
     22447     22446     22448     22450     22449     22451     22453     22452     22454
     22456     22455     22457     22459     22458     22460     22462     22461     22463
     22465     22464     22466     22468     22467     22469     22471     22470     22472
     22474     22473     22475     22477     22476     22478     22480     22479     22481
     22483     22482     22484     22486     22485     22487     22489     22488     22490
     22492     22491     22493     22495     22494     22496     22498     22497     22499
     22501     22500     22502     22504     22503     22505     22507     22506     22508
     22510     22509     22511     22513     22512     22514     22516     22515     22517
     22519     22518     22520     22522     22521     22523     22525     22524     22526
     22528     22527     22529     22531     22530     22532     22534     22533     22535
     22537     22536     22538     22540     22539     22541     22543     22542     22544
     22546     22545     22547     22549     22548     22550     22552     22551     22553
     22555     22554     22556     22558     22557     22559     22561     22560     22562
     22564     22563     22565     22567     22566     22568     22570     22569     22571
     22573     22572     22574     22576     22575     22577     22579     22578     22580
     22582     22581     22583     22585     22584     22586     22588     22587     22589
     22591     22590     22592     22594     22593     22595     22597     22596     22598
     22600     22599     22601     22603     22602     22604     22606     22605     22607
     22609     22608     22610     22612     22611     22613     22615     22614     22616
     22618     22617     22619     22621     22620     22622     22624     22623     22625
     22627     22626     22628     22630     22629     22631     22633     22632     22634
     22636     22635     22637     22639     22638     22640     22642     22641     22643
     22645     22644     22646     22648     22647     22649     22651     22650     22652
     22654     22653     22655     22657     22656     22658     22660     22659     22661
     22663     22662     22664     22666     22665     22667     22669     22668     22670
     22672     22671     22673     22675     22674     22676     22678     22677     22679
     22681     22680     22682     22684     22683     22685     22687     22686     22688
     22690     22689     22691     22693     22692     22694     22696     22695     22697
     22699     22698     22700     22702     22701     22703     22705     22704     22706
     22708     22707     22709     22711     22710     22712     22714     22713     22715
     22717     22716     22718     22720     22719     22721     22723     22722     22724
     22726     22725     22727     22729     22728     22730     22732     22731     22733
     22735     22734     22736     22738     22737     22739     22741     22740     22742
     22744     22743     22745     22747     22746     22748     22750     22749     22751
     22753     22752     22754     22756     22755     22757     22759     22758     22760
     22762     22761     22763     22765     22764     22766     22768     22767     22769
     22771     22770     22772     22774     22773     22775     22777     22776     22778
     22780     22779     22781     22783     22782     22784     22786     22785     22787
     22789     22788     22790     22792     22791     22793     22795     22794     22796
     22798     22797     22799     22801     22800     22802     22804     22803     22805
     22807     22806     22808     22810     22809     22811     22813     22812     22814
     22816     22815     22817     22819     22818     22820     22822     22821     22823
     22825     22824     22826     22828     22827     22829     22831     22830     22832
     22834     22833     22835     22837     22836     22838     22840     22839     22841
     22843     22842     22844     22846     22845     22847     22849     22848     22850
     22852     22851     22853     22855     22854     22856     22858     22857     22859
     22861     22860     22862     22864     22863     22865     22867     22866     22868
     22870     22869     22871     22873     22872     22874     22876     22875     22877
     22879     22878     22880     22882     22881     22883     22885     22884     22886
     22888     22887     22889     22891     22890     22892     22894     22893     22895
     22897     22896     22898     22900     22899     22901     22903     22902     22904
     22906     22905     22907     22909     22908     22910     22912     22911     22913
     22915     22914     22916     22918     22917     22919     22921     22920     22922
     22924     22923     22925     22927     22926     22928     22930     22929     22931
     22933     22932     22934     22936     22935     22937     22939     22938     22940
     22942     22941     22943     22945     22944     22946     22948     22947     22949
     22951     22950     22952     22954     22953     22955     22957     22956     22958
     22960     22959     22961     22963     22962     22964     22966     22965     22967
     22969     22968     22970     22972     22971     22973     22975     22974     22976
     22978     22977     22979     22981     22980     22982     22984     22983     22985
     22987     22986     22988     22990     22989     22991     22993     22992     22994
     22996     22995     22997     22999     22998     23000     23002     23001     23003
     23005     23004     23006     23008     23007     23009     23011     23010     23012
     23014     23013     23015     23017     23016     23018     23020     23019     23021
     23023     23022     23024     23026     23025     23027     23029     23028     23030
     23032     23031     23033     23035     23034     23036     23038     23037     23039
     23041     23040     23042     23044     23043     23045     23047     23046     23048
     23050     23049     23051     23053     23052     23054     23056     23055     23057
     23059     23058     23060     23062     23061     23063     23065     23064     23066
     23068     23067     23069     23071     23070     23072     23074     23073     23075
     23077     23076     23078     23080     23079     23081     23083     23082     23084
     23086     23085     23087     23089     23088     23090     23092     23091     23093
     23095     23094     23096     23098     23097     23099     23101     23100     23102
     23104     23103     23105     23107     23106     23108     23110     23109     23111
     23113     23112     23114     23116     23115     23117     23119     23118     23120
     23122     23121     23123     23125     23124     23126     23128     23127     23129
     23131     23130     23132     23134     23133     23135     23137     23136     23138
     23140     23139     23141     23143     23142     23144     23146     23145     23147
     23149     23148     23150     23152     23151     23153     23155     23154     23156
     23158     23157     23159     23161     23160     23162     23164     23163     23165
     23167     23166     23168     23170     23169     23171     23173     23172     23174
     23176     23175     23177     23179     23178     23180     23182     23181     23183
     23185     23184     23186     23188     23187     23189     23191     23190     23192
     23194     23193     23195     23197     23196     23198     23200     23199     23201
     23203     23202     23204     23206     23205     23207     23209     23208     23210
     23212     23211     23213     23215     23214     23216     23218     23217     23219
     23221     23220     23222     23224     23223     23225     23227     23226     23228
     23230     23229     23231     23233     23232     23234     23236     23235     23237
     23239     23238     23240     23242     23241     23243     23245     23244     23246
     23248     23247     23249     23251     23250     23252     23254     23253     23255
     23257     23256     23258     23260     23259     23261     23263     23262     23264
     23266     23265     23267     23269     23268     23270     23272     23271     23273
     23275     23274     23276     23278     23277     23279     23281     23280     23282
     23284     23283     23285     23287     23286     23288     23290     23289     23291
     23293     23292     23294     23296     23295     23297     23299     23298     23300
     23302     23301     23303     23305     23304     23306     23308     23307     23309
     23311     23310     23312     23314     23313     23315     23317     23316     23318
     23320     23319     23321     23323     23322     23324     23326     23325     23327
     23329     23328     23330     23332     23331     23333     23335     23334     23336
     23338     23337     23339     23341     23340     23342     23344     23343     23345
     23347     23346     23348     23350     23349     23351     23353     23352     23354
     23356     23355     23357     23359     23358     23360     23362     23361     23363
     23365     23364     23366     23368     23367     23369     23371     23370     23372
     23374     23373     23375     23377     23376     23378     23380     23379     23381
     23383     23382     23384     23386     23385     23387     23389     23388     23390
     23392     23391     23393     23395     23394     23396     23398     23397     23399
     23401     23400     23402     23404     23403     23405     23407     23406     23408
     23410     23409     23411     23413     23412     23414     23416     23415     23417
     23419     23418     23420     23422     23421     23423     23425     23424     23426
     23428     23427     23429     23431     23430     23432     23434     23433     23435
     23437     23436     23438     23440     23439     23441     23443     23442     23444
     23446     23445     23447     23449     23448     23450     23452     23451     23453
     23455     23454     23456     23458     23457     23459     23461     23460     23462
     23464     23463     23465     23467     23466     23468     23470     23469     23471
     23473     23472     23474     23476     23475     23477     23479     23478     23480
     23482     23481     23483     23485     23484     23486     23488     23487     23489
     23491     23490     23492     23494     23493     23495     23497     23496     23498
     23500     23499     23501     23503     23502     23504     23506     23505     23507
     23509     23508     23510     23512     23511     23513     23515     23514     23516
     23518     23517     23519     23521     23520     23522     23524     23523     23525
     23527     23526     23528     23530     23529     23531     23533     23532     23534
     23536     23535     23537     23539     23538     23540     23542     23541     23543
     23545     23544     23546     23548     23547     23549     23551     23550     23552
     23554     23553     23555     23557     23556     23558     23560     23559     23561
     23563     23562     23564     23566     23565     23567     23569     23568     23570
     23572     23571     23573     23575     23574     23576     23578     23577     23579
     23581     23580     23582     23584     23583     23585     23587     23586     23588
     23590     23589     23591     23593     23592     23594     23596     23595     23597
     23599     23598     23600     23602     23601     23603     23605     23604     23606
     23608     23607     23609     23611     23610     23612     23614     23613     23615
     23617     23616     23618     23620     23619     23621     23623     23622     23624
     23626     23625     23627     23629     23628     23630     23632     23631     23633
     23635     23634     23636     23638     23637     23639     23641     23640     23642
     23644     23643     23645     23647     23646     23648     23650     23649     23651
     23653     23652     23654     23656     23655     23657     23659     23658     23660
     23662     23661     23663     23665     23664     23666     23668     23667     23669
     23671     23670     23672     23674     23673     23675     23677     23676     23678
     23680     23679     23681     23683     23682     23684     23686     23685     23687
     23689     23688     23690     23692     23691     23693     23695     23694     23696
     23698     23697     23699     23701     23700     23702     23704     23703     23705
     23707     23706     23708     23710     23709     23711     23713     23712     23714
     23716     23715     23717     23719     23718     23720     23722     23721     23723
     23725     23724     23726     23728     23727     23729     23731     23730     23732
     23734     23733     23735     23737     23736     23738     23740     23739     23741
     23743     23742     23744     23746     23745     23747     23749     23748     23750
     23752     23751     23753     23755     23754     23756     23758     23757     23759
     23761     23760     23762     23764     23763     23765     23767     23766     23768
     23770     23769     23771     23773     23772     23774     23776     23775     23777
     23779     23778     23780     23782     23781     23783     23785     23784     23786
     23788     23787     23789     23791     23790     23792     23794     23793     23795
     23797     23796     23798     23800     23799     23801     23803     23802     23804
     23806     23805     23807     23809     23808     23810     23812     23811     23813
     23815     23814     23816     23818     23817     23819     23821     23820     23822
     23824     23823     23825     23827     23826     23828     23830     23829     23831
     23833     23832     23834     23836     23835     23837     23839     23838     23840
     23842     23841     23843     23845     23844     23846     23848     23847     23849
     23851     23850     23852     23854     23853     23855     23857     23856     23858
     23860     23859     23861     23863     23862     23864     23866     23865     23867
     23869     23868     23870     23872     23871     23873     23875     23874     23876
     23878     23877     23879     23881     23880     23882     23884     23883     23885
     23887     23886     23888     23890     23889     23891     23893     23892     23894
     23896     23895     23897     23899     23898     23900     23902     23901     23903
     23905     23904     23906     23908     23907     23909     23911     23910     23912
     23914     23913     23915     23917     23916     23918     23920     23919     23921
     23923     23922     23924     23926     23925     23927     23929     23928     23930
     23932     23931     23933     23935     23934     23936     23938     23937     23939
     23941     23940     23942     23944     23943     23945     23947     23946     23948
     23950     23949     23951     23953     23952     23954     23956     23955     23957
     23959     23958     23960     23962     23961     23963     23965     23964     23966
     23968     23967     23969     23971     23970     23972     23974     23973     23975
     23977     23976     23978     23980     23979     23981     23983     23982     23984
     23986     23985     23987     23989     23988     23990     23992     23991     23993
     23995     23994     23996     23998     23997     23999     24001     24000     24002
     24004     24003     24005     24007     24006     24008     24010     24009     24011
     24013     24012     24014     24016     24015     24017     24019     24018     24020
     24022     24021     24023     24025     24024     24026     24028     24027     24029
     24031     24030     24032     24034     24033     24035     24037     24036     24038
     24040     24039     24041     24043     24042     24044     24046     24045     24047
     24049     24048     24050     24052     24051     24053     24055     24054     24056
     24058     24057     24059     24061     24060     24062     24064     24063     24065
     24067     24066     24068     24070     24069     24071     24073     24072     24074
     24076     24075     24077     24079     24078     24080     24082     24081     24083
     24085     24084     24086     24088     24087     24089     24091     24090     24092
     24094     24093     24095     24097     24096     24098     24100     24099     24101
     24103     24102     24104     24106     24105     24107     24109     24108     24110
     24112     24111     24113     24115     24114     24116     24118     24117     24119
     24121     24120     24122     24124     24123     24125     24127     24126     24128
     24130     24129     24131     24133     24132     24134     24136     24135     24137
     24139     24138     24140     24142     24141     24143     24145     24144     24146
     24148     24147     24149     24151     24150     24152     24154     24153     24155
     24157     24156     24158     24160     24159     24161     24163     24162     24164
     24166     24165     24167     24169     24168     24170     24172     24171     24173
     24175     24174     24176     24178     24177     24179     24181     24180     24182
     24184     24183     24185     24187     24186     24188     24190     24189     24191
     24193     24192     24194     24196     24195     24197     24199     24198     24200
     24202     24201     24203     24205     24204     24206     24208     24207     24209
     24211     24210     24212     24214     24213     24215     24217     24216     24218
     24220     24219     24221     24223     24222     24224     24226     24225     24227
     24229     24228     24230     24232     24231     24233     24235     24234     24236
     24238     24237     24239     24241     24240     24242     24244     24243     24245
     24247     24246     24248     24250     24249     24251     24253     24252     24254
     24256     24255     24257     24259     24258     24260     24262     24261     24263
     24265     24264     24266     24268     24267     24269     24271     24270     24272
     24274     24273     24275     24277     24276     24278     24280     24279     24281
     24283     24282     24284     24286     24285     24287     24289     24288     24290
     24292     24291     24293     24295     24294     24296     24298     24297     24299
     24301     24300     24302     24304     24303     24305     24307     24306     24308
     24310     24309     24311     24313     24312     24314     24316     24315     24317
     24319     24318     24320     24322     24321     24323     24325     24324     24326
     24328     24327     24329     24331     24330     24332     24334     24333     24335
     24337     24336     24338     24340     24339     24341     24343     24342     24344
     24346     24345     24347     24349     24348     24350     24352     24351     24353
     24355     24354     24356     24358     24357     24359     24361     24360     24362
     24364     24363     24365     24367     24366     24368     24370     24369     24371
     24373     24372     24374     24376     24375     24377     24379     24378     24380
     24382     24381     24383     24385     24384     24386     24388     24387     24389
     24391     24390     24392     24394     24393     24395     24397     24396     24398
     24400     24399     24401     24403     24402     24404     24406     24405     24407
     24409     24408     24410     24412     24411     24413     24415     24414     24416
     24418     24417     24419     24421     24420     24422     24424     24423     24425
     24427     24426     24428     24430     24429     24431     24433     24432     24434
     24436     24435     24437     24439     24438     24440     24442     24441     24443
     24445     24444     24446     24448     24447     24449     24451     24450     24452
     24454     24453     24455     24457     24456     24458     24460     24459     24461
     24463     24462     24464     24466     24465     24467     24469     24468     24470
     24472     24471     24473     24475     24474     24476     24478     24477     24479
     24481     24480     24482     24484     24483     24485     24487     24486     24488
     24490     24489     24491     24493     24492     24494     24496     24495     24497
     24499     24498     24500     24502     24501     24503     24505     24504     24506
     24508     24507     24509     24511     24510     24512     24514     24513     24515
     24517     24516     24518     24520     24519     24521     24523     24522     24524
     24526     24525     24527     24529     24528     24530     24532     24531     24533
     24535     24534     24536     24538     24537     24539     24541     24540     24542
     24544     24543     24545     24547     24546     24548     24550     24549     24551
     24553     24552     24554     24556     24555     24557     24559     24558     24560
     24562     24561     24563     24565     24564     24566     24568     24567     24569
     24571     24570     24572     24574     24573     24575     24577     24576     24578
     24580     24579     24581     24583     24582     24584     24586     24585     24587
     24589     24588     24590     24592     24591     24593     24595     24594     24596
     24598     24597     24599     24601     24600     24602     24604     24603     24605
     24607     24606     24608     24610     24609     24611     24613     24612     24614
     24616     24615     24617     24619     24618     24620     24622     24621     24623
     24625     24624     24626     24628     24627     24629     24631     24630     24632
     24634     24633     24635     24637     24636     24638     24640     24639     24641
     24643     24642     24644     24646     24645     24647     24649     24648     24650
     24652     24651     24653     24655     24654     24656     24658     24657     24659
     24661     24660     24662     24664     24663     24665     24667     24666     24668
     24670     24669     24671     24673     24672     24674     24676     24675     24677
     24679     24678     24680     24682     24681     24683     24685     24684     24686
     24688     24687     24689     24691     24690     24692     24694     24693     24695
     24697     24696     24698     24700     24699     24701     24703     24702     24704
     24706     24705     24707     24709     24708     24710     24712     24711     24713
     24715     24714     24716     24718     24717     24719     24721     24720     24722
     24724     24723     24725     24727     24726     24728     24730     24729     24731
     24733     24732     24734     24736     24735     24737     24739     24738     24740
     24742     24741     24743     24745     24744     24746     24748     24747     24749
     24751     24750     24752     24754     24753     24755     24757     24756     24758
     24760     24759     24761     24763     24762     24764     24766     24765     24767
     24769     24768     24770     24772     24771     24773     24775     24774     24776
     24778     24777     24779     24781     24780     24782     24784     24783     24785
     24787     24786     24788     24790     24789     24791     24793     24792     24794
     24796     24795     24797     24799     24798     24800     24802     24801     24803
     24805     24804     24806     24808     24807     24809     24811     24810     24812
     24814     24813     24815     24817     24816     24818     24820     24819     24821
     24823     24822     24824     24826     24825     24827     24829     24828     24830
     24832     24831     24833     24835     24834     24836     24838     24837     24839
     24841     24840     24842     24844     24843     24845     24847     24846     24848
     24850     24849     24851     24853     24852     24854     24856     24855     24857
     24859     24858     24860     24862     24861     24863     24865     24864     24866
     24868     24867     24869     24871     24870     24872     24874     24873     24875
     24877     24876     24878     24880     24879     24881     24883     24882     24884
     24886     24885     24887     24889     24888     24890     24892     24891     24893
     24895     24894     24896     24898     24897     24899     24901     24900     24902
     24904     24903     24905     24907     24906     24908     24910     24909     24911
     24913     24912     24914     24916     24915     24917     24919     24918     24920
     24922     24921     24923     24925     24924     24926     24928     24927     24929
     24931     24930     24932     24934     24933     24935     24937     24936     24938
     24940     24939     24941     24943     24942     24944     24946     24945     24947
     24949     24948     24950     24952     24951     24953     24955     24954     24956
     24958     24957     24959     24961     24960     24962     24964     24963     24965
     24967     24966     24968     24970     24969     24971     24973     24972     24974
     24976     24975     24977     24979     24978     24980     24982     24981     24983
     24985     24984     24986     24988     24987     24989     24991     24990     24992
     24994     24993     24995     24997     24996     24998     25000     24999     25001
     25003     25002     25004     25006     25005     25007     25009     25008     25010
     25012     25011     25013     25015     25014     25016     25018     25017     25019
     25021     25020     25022     25024     25023     25025     25027     25026     25028
     25030     25029     25031     25033     25032     25034     25036     25035     25037
     25039     25038     25040     25042     25041     25043     25045     25044     25046
     25048     25047     25049     25051     25050     25052     25054     25053     25055
     25057     25056     25058     25060     25059     25061     25063     25062     25064
     25066     25065     25067     25069     25068     25070     25072     25071     25073
     25075     25074     25076     25078     25077     25079     25081     25080     25082
     25084     25083     25085     25087     25086     25088     25090     25089     25091
     25093     25092     25094     25096     25095     25097     25099     25098     25100
     25102     25101     25103     25105     25104     25106     25108     25107     25109
     25111     25110     25112     25114     25113     25115     25117     25116     25118
     25120     25119     25121     25123     25122     25124     25126     25125     25127
     25129     25128     25130     25132     25131     25133     25135     25134     25136
     25138     25137     25139     25141     25140     25142     25144     25143     25145
     25147     25146     25148     25150     25149     25151     25153     25152     25154
     25156     25155     25157     25159     25158     25160     25162     25161     25163
     25165     25164     25166     25168     25167     25169     25171     25170     25172
     25174     25173     25175     25177     25176     25178     25180     25179     25181
     25183     25182     25184     25186     25185     25187     25189     25188     25190
     25192     25191     25193     25195     25194     25196     25198     25197     25199
     25201     25200     25202     25204     25203     25205     25207     25206     25208
     25210     25209     25211     25213     25212     25214     25216     25215     25217
     25219     25218     25220     25222     25221     25223     25225     25224     25226
     25228     25227     25229     25231     25230     25232     25234     25233     25235
     25237     25236     25238     25240     25239     25241     25243     25242     25244
     25246     25245     25247     25249     25248     25250     25252     25251     25253
     25255     25254     25256     25258     25257     25259     25261     25260     25262
     25264     25263     25265     25267     25266     25268     25270     25269     25271
     25273     25272     25274     25276     25275     25277     25279     25278     25280
     25282     25281     25283     25285     25284     25286     25288     25287     25289
     25291     25290     25292     25294     25293     25295     25297     25296     25298
     25300     25299     25301     25303     25302     25304     25306     25305     25307
     25309     25308     25310     25312     25311     25313     25315     25314     25316
     25318     25317     25319     25321     25320     25322     25324     25323     25325
     25327     25326     25328     25330     25329     25331     25333     25332     25334
     25336     25335     25337     25339     25338     25340     25342     25341     25343
     25345     25344     25346     25348     25347     25349     25351     25350     25352
     25354     25353     25355     25357     25356     25358     25360     25359     25361
     25363     25362     25364     25366     25365     25367     25369     25368     25370
     25372     25371     25373     25375     25374     25376     25378     25377     25379
     25381     25380     25382     25384     25383     25385     25387     25386     25388
     25390     25389     25391     25393     25392     25394     25396     25395     25397
     25399     25398     25400     25402     25401     25403     25405     25404     25406
     25408     25407     25409     25411     25410     25412     25414     25413     25415
     25417     25416     25418     25420     25419     25421     25423     25422     25424
     25426     25425     25427     25429     25428     25430     25432     25431     25433
     25435     25434     25436     25438     25437     25439     25441     25440     25442
     25444     25443     25445     25447     25446     25448     25450     25449     25451
     25453     25452     25454     25456     25455     25457     25459     25458     25460
     25462     25461     25463     25465     25464     25466     25468     25467     25469
     25471     25470     25472     25474     25473     25475     25477     25476     25478
     25480     25479     25481     25483     25482     25484     25486     25485     25487
     25489     25488     25490     25492     25491     25493     25495     25494     25496
     25498     25497     25499     25501     25500     25502     25504     25503     25505
     25507     25506     25508     25510     25509     25511     25513     25512     25514
     25516     25515     25517     25519     25518     25520     25522     25521     25523
     25525     25524     25526     25528     25527     25529     25531     25530     25532
     25534     25533     25535     25537     25536     25538     25540     25539     25541
     25543     25542     25544     25546     25545     25547     25549     25548     25550
     25552     25551     25553     25555     25554     25556     25558     25557     25559
     25561     25560     25562     25564     25563     25565     25567     25566     25568
     25570     25569     25571     25573     25572     25574     25576     25575     25577
     25579     25578     25580     25582     25581     25583     25585     25584     25586
     25588     25587     25589     25591     25590     25592     25594     25593     25595
     25597     25596     25598     25600     25599     25601     25603     25602     25604
     25606     25605     25607     25609     25608     25610     25612     25611     25613
     25615     25614     25616     25618     25617     25619     25621     25620     25622
     25624     25623     25625     25627     25626     25628     25630     25629     25631
     25633     25632     25634     25636     25635     25637     25639     25638     25640
     25642     25641     25643     25645     25644     25646     25648     25647     25649
     25651     25650     25652     25654     25653     25655     25657     25656     25658
     25660     25659     25661     25663     25662     25664     25666     25665     25667
     25669     25668     25670     25672     25671     25673     25675     25674     25676
     25678     25677     25679     25681     25680     25682     25684     25683     25685
     25687     25686     25688     25690     25689     25691     25693     25692     25694
     25696     25695     25697     25699     25698     25700     25702     25701     25703
     25705     25704     25706     25708     25707     25709     25711     25710     25712
     25714     25713     25715     25717     25716     25718     25720     25719     25721
     25723     25722     25724     25726     25725     25727     25729     25728     25730
     25732     25731     25733     25735     25734     25736     25738     25737     25739
     25741     25740     25742     25744     25743     25745     25747     25746     25748
     25750     25749     25751     25753     25752     25754     25756     25755     25757
     25759     25758     25760     25762     25761     25763     25765     25764     25766
     25768     25767     25769     25771     25770     25772     25774     25773     25775
     25777     25776     25778     25780     25779     25781     25783     25782     25784
     25786     25785     25787     25789     25788     25790     25792     25791     25793
     25795     25794     25796     25798     25797     25799     25801     25800     25802
     25804     25803     25805     25807     25806     25808     25810     25809     25811
     25813     25812     25814     25816     25815     25817     25819     25818     25820
     25822     25821     25823     25825     25824     25826     25828     25827     25829
     25831     25830     25832     25834     25833     25835     25837     25836     25838
     25840     25839     25841     25843     25842     25844     25846     25845     25847
     25849     25848     25850     25852     25851     25853     25855     25854     25856
     25858     25857     25859     25861     25860     25862     25864     25863     25865
     25867     25866     25868     25870     25869     25871     25873     25872     25874
     25876     25875     25877     25879     25878     25880     25882     25881     25883
     25885     25884     25886     25888     25887     25889     25891     25890     25892
     25894     25893     25895     25897     25896     25898     25900     25899     25901
     25903     25902     25904     25906     25905     25907     25909     25908     25910
     25912     25911     25913     25915     25914     25916     25918     25917     25919
     25921     25920     25922     25924     25923     25925     25927     25926     25928
     25930     25929     25931     25933     25932     25934     25936     25935     25937
     25939     25938     25940     25942     25941     25943     25945     25944     25946
     25948     25947     25949     25951     25950     25952     25954     25953     25955
     25957     25956     25958     25960     25959     25961     25963     25962     25964
     25966     25965     25967     25969     25968     25970     25972     25971     25973
     25975     25974     25976     25978     25977     25979     25981     25980     25982
     25984     25983     25985     25987     25986     25988     25990     25989     25991
     25993     25992     25994     25996     25995     25997     25999     25998     26000
     26002     26001     26003     26005     26004     26006     26008     26007     26009
     26011     26010     26012     26014     26013     26015     26017     26016     26018
     26020     26019     26021     26023     26022     26024     26026     26025     26027
     26029     26028     26030     26032     26031     26033     26035     26034     26036
     26038     26037     26039     26041     26040     26042     26044     26043     26045
     26047     26046     26048     26050     26049     26051     26053     26052     26054
     26056     26055     26057     26059     26058     26060     26062     26061     26063
     26065     26064     26066     26068     26067     26069     26071     26070     26072
     26074     26073     26075     26077     26076     26078     26080     26079     26081
     26083     26082     26084     26086     26085     26087     26089     26088     26090
     26092     26091     26093     26095     26094     26096     26098     26097     26099
     26101     26100     26102     26104     26103     26105     26107     26106     26108
     26110     26109     26111     26113     26112     26114     26116     26115     26117
     26119     26118     26120     26122     26121     26123     26125     26124     26126
     26128     26127     26129     26131     26130     26132     26134     26133     26135
     26137     26136     26138     26140     26139     26141     26143     26142     26144
     26146     26145     26147     26149     26148     26150     26152     26151     26153
     26155     26154     26156     26158     26157     26159     26161     26160     26162
     26164     26163     26165     26167     26166     26168     26170     26169     26171
     26173     26172     26174     26176     26175     26177     26179     26178     26180
     26182     26181     26183     26185     26184     26186     26188     26187     26189
     26191     26190     26192     26194     26193     26195     26197     26196     26198
     26200     26199     26201     26203     26202     26204     26206     26205     26207
     26209     26208     26210     26212     26211     26213     26215     26214     26216
     26218     26217     26219     26221     26220     26222     26224     26223     26225
     26227     26226     26228     26230     26229     26231     26233     26232     26234
     26236     26235     26237     26239     26238     26240     26242     26241     26243
     26245     26244     26246     26248     26247     26249     26251     26250     26252
     26254     26253     26255     26257     26256     26258     26260     26259     26261
     26263     26262     26264     26266     26265     26267     26269     26268     26270
     26272     26271     26273     26275     26274     26276     26278     26277     26279
     26281     26280     26282     26284     26283     26285     26287     26286     26288
     26290     26289     26291     26293     26292     26294     26296     26295     26297
     26299     26298     26300     26302     26301     26303     26305     26304     26306
     26308     26307     26309     26311     26310     26312     26314     26313     26315
     26317     26316     26318     26320     26319     26321     26323     26322     26324
     26326     26325     26327     26329     26328     26330     26332     26331     26333
     26335     26334     26336     26338     26337     26339     26341     26340     26342
     26344     26343     26345     26347     26346     26348     26350     26349     26351
     26353     26352     26354     26356     26355     26357     26359     26358     26360
     26362     26361     26363     26365     26364     26366     26368     26367     26369
     26371     26370     26372     26374     26373     26375     26377     26376     26378
     26380     26379     26381     26383     26382     26384     26386     26385     26387
     26389     26388     26390     26392     26391     26393     26395     26394     26396
     26398     26397     26399     26401     26400     26402     26404     26403     26405
     26407     26406     26408     26410     26409     26411     26413     26412     26414
     26416     26415     26417     26419     26418     26420     26422     26421     26423
     26425     26424     26426     26428     26427     26429     26431     26430     26432
     26434     26433     26435     26437     26436     26438     26440     26439     26441
     26443     26442     26444     26446     26445     26447     26449     26448     26450
     26452     26451     26453     26455     26454     26456     26458     26457     26459
     26461     26460     26462     26464     26463     26465     26467     26466     26468
     26470     26469     26471     26473     26472     26474     26476     26475     26477
     26479     26478     26480     26482     26481     26483     26485     26484     26486
     26488     26487     26489     26491     26490     26492     26494     26493     26495
     26497     26496     26498     26500     26499     26501     26503     26502     26504
     26506     26505     26507     26509     26508     26510     26512     26511     26513
     26515     26514     26516     26518     26517     26519     26521     26520     26522
     26524     26523     26525     26527     26526     26528     26530     26529     26531
     26533     26532     26534     26536     26535     26537     26539     26538     26540
     26542     26541     26543     26545     26544     26546     26548     26547     26549
     26551     26550     26552     26554     26553     26555     26557     26556     26558
     26560     26559     26561     26563     26562     26564     26566     26565     26567
     26569     26568     26570     26572     26571     26573     26575     26574     26576
     26578     26577     26579     26581     26580     26582     26584     26583     26585
     26587     26586     26588     26590     26589     26591     26593     26592     26594
     26596     26595     26597     26599     26598     26600     26602     26601     26603
     26605     26604     26606     26608     26607     26609     26611     26610     26612
     26614     26613     26615     26617     26616     26618     26620     26619     26621
     26623     26622     26624     26626     26625     26627     26629     26628     26630
     26632     26631     26633     26635     26634     26636     26638     26637     26639
     26641     26640     26642     26644     26643     26645     26647     26646     26648
     26650     26649     26651     26653     26652     26654     26656     26655     26657
     26659     26658     26660     26662     26661     26663     26665     26664     26666
     26668     26667     26669     26671     26670     26672     26674     26673     26675
     26677     26676     26678     26680     26679     26681     26683     26682     26684
     26686     26685     26687     26689     26688     26690     26692     26691     26693
     26695     26694     26696     26698     26697     26699     26701     26700     26702
     26704     26703     26705     26707     26706     26708     26710     26709     26711
     26713     26712     26714     26716     26715     26717     26719     26718     26720
     26722     26721     26723     26725     26724     26726     26728     26727     26729
     26731     26730     26732     26734     26733     26735     26737     26736     26738
     26740     26739     26741     26743     26742     26744     26746     26745     26747
     26749     26748     26750     26752     26751     26753     26755     26754     26756
     26758     26757     26759     26761     26760     26762     26764     26763     26765
     26767     26766     26768     26770     26769     26771     26773     26772     26774
     26776     26775     26777     26779     26778     26780     26782     26781     26783
     26785     26784     26786     26788     26787     26789     26791     26790     26792
     26794     26793     26795     26797     26796     26798     26800     26799     26801
     26803     26802     26804     26806     26805     26807     26809     26808     26810
     26812     26811     26813     26815     26814     26816     26818     26817     26819
     26821     26820     26822     26824     26823     26825     26827     26826     26828
     26830     26829     26831     26833     26832     26834     26836     26835     26837
     26839     26838     26840     26842     26841     26843     26845     26844     26846
     26848     26847     26849     26851     26850     26852     26854     26853     26855
     26857     26856     26858     26860     26859     26861     26863     26862     26864
     26866     26865     26867     26869     26868     26870     26872     26871     26873
     26875     26874     26876     26878     26877     26879     26881     26880     26882
     26884     26883     26885     26887     26886     26888     26890     26889     26891
     26893     26892     26894     26896     26895     26897     26899     26898     26900
     26902     26901     26903     26905     26904     26906     26908     26907     26909
     26911     26910     26912     26914     26913     26915     26917     26916     26918
     26920     26919     26921     26923     26922     26924     26926     26925     26927
     26929     26928     26930     26932     26931     26933     26935     26934     26936
     26938     26937     26939     26941     26940     26942     26944     26943     26945
     26947     26946     26948     26950     26949     26951     26953     26952     26954
     26956     26955     26957     26959     26958     26960     26962     26961     26963
     26965     26964     26966     26968     26967     26969     26971     26970     26972
     26974     26973     26975     26977     26976     26978     26980     26979     26981
     26983     26982     26984     26986     26985     26987     26989     26988     26990
     26992     26991     26993     26995     26994     26996     26998     26997     26999
     27001     27000     27002     27004     27003     27005     27007     27006     27008
     27010     27009     27011     27013     27012     27014     27016     27015     27017
     27019     27018     27020     27022     27021     27023     27025     27024     27026
     27028     27027     27029     27031     27030     27032     27034     27033     27035
     27037     27036     27038     27040     27039     27041     27043     27042     27044
     27046     27045     27047     27049     27048     27050     27052     27051     27053
     27055     27054     27056     27058     27057     27059     27061     27060     27062
     27064     27063     27065     27067     27066     27068     27070     27069     27071
     27073     27072     27074     27076     27075     27077     27079     27078     27080
     27082     27081     27083     27085     27084     27086     27088     27087     27089
     27091     27090     27092     27094     27093     27095     27097     27096     27098
     27100     27099     27101     27103     27102     27104     27106     27105     27107
     27109     27108     27110     27112     27111     27113     27115     27114     27116
     27118     27117     27119     27121     27120     27122     27124     27123     27125
     27127     27126     27128     27130     27129     27131     27133     27132     27134
     27136     27135     27137     27139     27138     27140     27142     27141     27143
     27145     27144     27146     27148     27147     27149     27151     27150     27152
     27154     27153     27155     27157     27156     27158     27160     27159     27161
     27163     27162     27164     27166     27165     27167     27169     27168     27170
     27172     27171     27173     27175     27174     27176     27178     27177     27179
     27181     27180     27182     27184     27183     27185     27187     27186     27188
     27190     27189     27191     27193     27192     27194     27196     27195     27197
     27199     27198     27200     27202     27201     27203     27205     27204     27206
     27208     27207     27209     27211     27210     27212     27214     27213     27215
     27217     27216     27218     27220     27219     27221     27223     27222     27224
     27226     27225     27227     27229     27228     27230     27232     27231     27233
     27235     27234     27236     27238     27237     27239     27241     27240     27242
     27244     27243     27245     27247     27246     27248     27250     27249     27251
     27253     27252     27254     27256     27255     27257     27259     27258     27260
     27262     27261     27263     27265     27264     27266     27268     27267     27269
     27271     27270     27272     27274     27273     27275     27277     27276     27278
     27280     27279     27281     27283     27282     27284     27286     27285     27287
     27289     27288     27290     27292     27291     27293     27295     27294     27296
     27298     27297     27299     27301     27300     27302     27304     27303     27305
     27307     27306     27308     27310     27309     27311     27313     27312     27314
     27316     27315     27317     27319     27318     27320     27322     27321     27323
     27325     27324     27326     27328     27327     27329     27331     27330     27332
     27334     27333     27335     27337     27336     27338     27340     27339     27341
     27343     27342     27344     27346     27345     27347     27349     27348     27350
     27352     27351     27353     27355     27354     27356     27358     27357     27359
     27361     27360     27362     27364     27363     27365     27367     27366     27368
     27370     27369     27371     27373     27372     27374     27376     27375     27377
     27379     27378     27380     27382     27381     27383     27385     27384     27386
     27388     27387     27389     27391     27390     27392     27394     27393     27395
     27397     27396     27398     27400     27399     27401     27403     27402     27404
     27406     27405     27407     27409     27408     27410     27412     27411     27413
     27415     27414     27416     27418     27417     27419     27421     27420     27422
     27424     27423     27425     27427     27426     27428     27430     27429     27431
     27433     27432     27434     27436     27435     27437     27439     27438     27440
     27442     27441     27443     27445     27444     27446     27448     27447     27449
     27451     27450     27452     27454     27453     27455     27457     27456     27458
     27460     27459     27461     27463     27462     27464     27466     27465     27467
     27469     27468     27470     27472     27471     27473     27475     27474     27476
     27478     27477     27479     27481     27480     27482     27484     27483     27485
     27487     27486     27488     27490     27489     27491     27493     27492     27494
     27496     27495     27497     27499     27498     27500     27502     27501     27503
     27505     27504     27506     27508     27507     27509     27511     27510     27512
     27514     27513     27515     27517     27516     27518     27520     27519     27521
     27523     27522     27524     27526     27525     27527     27529     27528     27530
     27532     27531     27533     27535     27534     27536     27538     27537     27539
     27541     27540     27542     27544     27543     27545     27547     27546     27548
     27550     27549     27551     27553     27552     27554     27556     27555     27557
     27559     27558     27560     27562     27561     27563     27565     27564     27566
     27568     27567     27569     27571     27570     27572     27574     27573     27575
     27577     27576     27578     27580     27579     27581     27583     27582     27584
     27586     27585     27587     27589     27588     27590     27592     27591     27593
     27595     27594     27596     27598     27597     27599     27601     27600     27602
     27604     27603     27605     27607     27606     27608     27610     27609     27611
     27613     27612     27614     27616     27615     27617     27619     27618     27620
     27622     27621     27623     27625     27624     27626     27628     27627     27629
     27631     27630     27632     27634     27633     27635     27637     27636     27638
     27640     27639     27641     27643     27642     27644     27646     27645     27647
     27649     27648     27650     27652     27651     27653     27655     27654     27656
     27658     27657     27659     27661     27660     27662     27664     27663     27665
     27667     27666     27668     27670     27669     27671     27673     27672     27674
     27676     27675     27677     27679     27678     27680     27682     27681     27683
     27685     27684     27686     27688     27687     27689     27691     27690     27692
     27694     27693     27695     27697     27696     27698     27700     27699     27701
     27703     27702     27704     27706     27705     27707     27709     27708     27710
     27712     27711     27713     27715     27714     27716     27718     27717     27719
     27721     27720     27722     27724     27723     27725     27727     27726     27728
     27730     27729     27731     27733     27732     27734     27736     27735     27737
     27739     27738     27740     27742     27741     27743     27745     27744     27746
     27748     27747     27749     27751     27750     27752     27754     27753     27755
     27757     27756     27758     27760     27759     27761     27763     27762     27764
     27766     27765     27767     27769     27768     27770     27772     27771     27773
     27775     27774     27776     27778     27777     27779     27781     27780     27782
     27784     27783     27785     27787     27786     27788     27790     27789     27791
     27793     27792     27794     27796     27795     27797     27799     27798     27800
     27802     27801     27803     27805     27804     27806     27808     27807     27809
     27811     27810     27812     27814     27813     27815     27817     27816     27818
     27820     27819     27821     27823     27822     27824     27826     27825     27827
     27829     27828     27830     27832     27831     27833     27835     27834     27836
     27838     27837     27839     27841     27840     27842     27844     27843     27845
     27847     27846     27848     27850     27849     27851     27853     27852     27854
     27856     27855     27857     27859     27858     27860     27862     27861     27863
     27865     27864     27866     27868     27867     27869     27871     27870     27872
     27874     27873     27875     27877     27876     27878     27880     27879     27881
     27883     27882     27884     27886     27885     27887     27889     27888     27890
     27892     27891     27893     27895     27894     27896     27898     27897     27899
     27901     27900     27902     27904     27903     27905     27907     27906     27908
     27910     27909     27911     27913     27912     27914     27916     27915     27917
     27919     27918     27920     27922     27921     27923     27925     27924     27926
     27928     27927     27929     27931     27930     27932     27934     27933     27935
     27937     27936     27938     27940     27939     27941     27943     27942     27944
     27946     27945     27947     27949     27948     27950     27952     27951     27953
     27955     27954     27956     27958     27957     27959     27961     27960     27962
     27964     27963     27965     27967     27966     27968     27970     27969     27971
     27973     27972     27974     27976     27975     27977     27979     27978     27980
     27982     27981     27983     27985     27984     27986     27988     27987     27989
     27991     27990     27992     27994     27993     27995     27997     27996     27998
     28000     27999     28001     28003     28002     28004     28006     28005     28007
     28009     28008     28010     28012     28011     28013     28015     28014     28016
     28018     28017     28019     28021     28020     28022     28024     28023     28025
     28027     28026     28028     28030     28029     28031     28033     28032     28034
     28036     28035     28037     28039     28038     28040     28042     28041     28043
     28045     28044     28046     28048     28047     28049     28051     28050     28052
     28054     28053     28055     28057     28056     28058     28060     28059     28061
     28063     28062     28064     28066     28065     28067     28069     28068     28070
     28072     28071     28073     28075     28074     28076     28078     28077     28079
     28081     28080     28082     28084     28083     28085     28087     28086     28088
     28090     28089     28091     28093     28092     28094     28096     28095     28097
     28099     28098     28100     28102     28101     28103     28105     28104     28106
     28108     28107     28109     28111     28110     28112     28114     28113     28115
     28117     28116     28118     28120     28119     28121     28123     28122     28124
     28126     28125     28127     28129     28128     28130     28132     28131     28133
     28135     28134     28136     28138     28137     28139     28141     28140     28142
     28144     28143     28145     28147     28146     28148     28150     28149     28151
     28153     28152     28154     28156     28155     28157     28159     28158     28160
     28162     28161     28163     28165     28164     28166     28168     28167     28169
     28171     28170     28172     28174     28173     28175     28177     28176     28178
     28180     28179     28181     28183     28182     28184     28186     28185     28187
     28189     28188     28190     28192     28191     28193     28195     28194     28196
     28198     28197     28199     28201     28200     28202     28204     28203     28205
     28207     28206     28208     28210     28209     28211     28213     28212     28214
     28216     28215     28217     28219     28218     28220     28222     28221     28223
     28225     28224     28226     28228     28227     28229     28231     28230     28232
     28234     28233     28235     28237     28236     28238     28240     28239     28241
     28243     28242     28244     28246     28245     28247     28249     28248     28250
     28252     28251     28253     28255     28254     28256     28258     28257     28259
     28261     28260     28262     28264     28263     28265     28267     28266     28268
     28270     28269     28271     28273     28272     28274     28276     28275     28277
     28279     28278     28280     28282     28281     28283     28285     28284     28286
     28288     28287     28289     28291     28290     28292     28294     28293     28295
     28297     28296     28298     28300     28299     28301     28303     28302     28304
     28306     28305     28307     28309     28308     28310     28312     28311     28313
     28315     28314     28316     28318     28317     28319     28321     28320     28322
     28324     28323     28325     28327     28326     28328     28330     28329     28331
     28333     28332     28334     28336     28335     28337     28339     28338     28340
     28342     28341     28343     28345     28344     28346     28348     28347     28349
     28351     28350     28352     28354     28353     28355     28357     28356     28358
     28360     28359     28361     28363     28362     28364     28366     28365     28367
     28369     28368     28370     28372     28371     28373     28375     28374     28376
     28378     28377     28379     28381     28380     28382     28384     28383     28385
     28387     28386     28388     28390     28389     28391     28393     28392     28394
     28396     28395     28397     28399     28398     28400     28402     28401     28403
     28405     28404     28406     28408     28407     28409     28411     28410     28412
     28414     28413     28415     28417     28416     28418     28420     28419     28421
     28423     28422     28424     28426     28425     28427     28429     28428     28430
     28432     28431     28433     28435     28434     28436     28438     28437     28439
     28441     28440     28442     28444     28443     28445     28447     28446     28448
     28450     28449     28451     28453     28452     28454     28456     28455     28457
     28459     28458     28460     28462     28461     28463     28465     28464     28466
     28468     28467     28469     28471     28470     28472     28474     28473     28475
     28477     28476     28478     28480     28479     28481     28483     28482     28484
     28486     28485     28487     28489     28488     28490     28492     28491     28493
     28495     28494     28496     28498     28497     28499     28501     28500     28502
     28504     28503     28505     28507     28506     28508     28510     28509     28511
     28513     28512     28514     28516     28515     28517     28519     28518     28520
     28522     28521     28523     28525     28524     28526     28528     28527     28529
     28531     28530     28532     28534     28533     28535     28537     28536     28538
     28540     28539     28541     28543     28542     28544     28546     28545     28547
     28549     28548     28550     28552     28551     28553     28555     28554     28556
     28558     28557     28559     28561     28560     28562     28564     28563     28565
     28567     28566     28568     28570     28569     28571     28573     28572     28574
     28576     28575     28577     28579     28578     28580     28582     28581     28583
     28585     28584     28586     28588     28587     28589     28591     28590     28592
     28594     28593     28595     28597     28596     28598     28600     28599     28601
     28603     28602     28604     28606     28605     28607     28609     28608     28610
     28612     28611     28613     28615     28614     28616     28618     28617     28619
     28621     28620     28622     28624     28623     28625     28627     28626     28628
     28630     28629     28631     28633     28632     28634     28636     28635     28637
     28639     28638     28640     28642     28641     28643     28645     28644     28646
     28648     28647     28649     28651     28650     28652     28654     28653     28655
     28657     28656     28658     28660     28659     28661     28663     28662     28664
     28666     28665     28667     28669     28668     28670     28672     28671     28673
     28675     28674     28676     28678     28677     28679     28681     28680     28682
     28684     28683     28685     28687     28686     28688     28690     28689     28691
     28693     28692     28694     28696     28695     28697     28699     28698     28700
     28702     28701     28703     28705     28704     28706     28708     28707     28709
     28711     28710     28712     28714     28713     28715     28717     28716     28718
     28720     28719     28721     28723     28722     28724     28726     28725     28727
     28729     28728     28730     28732     28731     28733     28735     28734     28736
     28738     28737     28739     28741     28740     28742     28744     28743     28745
     28747     28746     28748     28750     28749     28751     28753     28752     28754
     28756     28755     28757     28759     28758     28760     28762     28761     28763
     28765     28764     28766     28768     28767     28769     28771     28770     28772
     28774     28773     28775     28777     28776     28778     28780     28779     28781
     28783     28782     28784     28786     28785     28787     28789     28788     28790
     28792     28791     28793     28795     28794     28796     28798     28797     28799
     28801     28800     28802     28804     28803     28805     28807     28806     28808
     28810     28809     28811     28813     28812     28814     28816     28815     28817
     28819     28818     28820     28822     28821     28823     28825     28824     28826
     28828     28827     28829     28831     28830     28832     28834     28833     28835
     28837     28836     28838     28840     28839     28841     28843     28842     28844
     28846     28845     28847     28849     28848     28850     28852     28851     28853
     28855     28854     28856     28858     28857     28859     28861     28860     28862
     28864     28863     28865     28867     28866     28868     28870     28869     28871
     28873     28872     28874     28876     28875     28877     28879     28878     28880
     28882     28881     28883     28885     28884     28886     28888     28887     28889
     28891     28890     28892     28894     28893     28895     28897     28896     28898
     28900     28899     28901     28903     28902     28904     28906     28905     28907
     28909     28908     28910     28912     28911     28913     28915     28914     28916
     28918     28917     28919     28921     28920     28922     28924     28923     28925
     28927     28926     28928     28930     28929     28931     28933     28932     28934
     28936     28935     28937     28939     28938     28940     28942     28941     28943
     28945     28944     28946     28948     28947     28949     28951     28950     28952
     28954     28953     28955     28957     28956     28958     28960     28959     28961
     28963     28962     28964     28966     28965     28967     28969     28968     28970
     28972     28971     28973     28975     28974     28976     28978     28977     28979
     28981     28980     28982     28984     28983     28985     28987     28986     28988
     28990     28989     28991     28993     28992     28994     28996     28995     28997
     28999     28998     29000     29002     29001     29003     29005     29004     29006
     29008     29007     29009     29011     29010     29012     29014     29013     29015
     29017     29016     29018     29020     29019     29021     29023     29022     29024
     29026     29025     29027     29029     29028     29030     29032     29031     29033
     29035     29034     29036     29038     29037     29039     29041     29040     29042
     29044     29043     29045     29047     29046     29048     29050     29049     29051
     29053     29052     29054     29056     29055     29057     29059     29058     29060
     29062     29061     29063     29065     29064     29066     29068     29067     29069
     29071     29070     29072     29074     29073     29075     29077     29076     29078
     29080     29079     29081     29083     29082     29084     29086     29085     29087
     29089     29088     29090     29092     29091     29093     29095     29094     29096
     29098     29097     29099     29101     29100     29102     29104     29103     29105
     29107     29106     29108     29110     29109     29111     29113     29112     29114
     29116     29115     29117     29119     29118     29120     29122     29121     29123
     29125     29124     29126     29128     29127     29129     29131     29130     29132
     29134     29133     29135     29137     29136     29138     29140     29139     29141
     29143     29142     29144     29146     29145     29147     29149     29148     29150
     29152     29151     29153     29155     29154     29156     29158     29157     29159
     29161     29160     29162     29164     29163     29165     29167     29166     29168
     29170     29169     29171     29173     29172     29174     29176     29175     29177
     29179     29178     29180     29182     29181     29183     29185     29184     29186
     29188     29187     29189     29191     29190     29192     29194     29193     29195
     29197     29196     29198     29200     29199     29201     29203     29202     29204
     29206     29205     29207     29209     29208     29210     29212     29211     29213
     29215     29214     29216     29218     29217     29219     29221     29220     29222
     29224     29223     29225     29227     29226     29228     29230     29229     29231
     29233     29232     29234     29236     29235     29237     29239     29238     29240
     29242     29241     29243     29245     29244     29246     29248     29247     29249
     29251     29250     29252     29254     29253     29255     29257     29256     29258
     29260     29259     29261     29263     29262     29264     29266     29265     29267
     29269     29268     29270     29272     29271     29273     29275     29274     29276
     29278     29277     29279     29281     29280     29282     29284     29283     29285
     29287     29286     29288     29290     29289     29291     29293     29292     29294
     29296     29295     29297     29299     29298     29300     29302     29301     29303
     29305     29304     29306     29308     29307     29309     29311     29310     29312
     29314     29313     29315     29317     29316     29318     29320     29319     29321
     29323     29322     29324     29326     29325     29327     29329     29328     29330
     29332     29331     29333     29335     29334     29336     29338     29337     29339
     29341     29340     29342     29344     29343     29345     29347     29346     29348
     29350     29349     29351     29353     29352     29354     29356     29355     29357
     29359     29358     29360     29362     29361     29363     29365     29364     29366
     29368     29367     29369     29371     29370     29372     29374     29373     29375
     29377     29376     29378     29380     29379     29381     29383     29382     29384
     29386     29385     29387     29389     29388     29390     29392     29391     29393
     29395     29394     29396     29398     29397     29399     29401     29400     29402
     29404     29403     29405     29407     29406     29408     29410     29409     29411
     29413     29412     29414     29416     29415     29417     29419     29418     29420
     29422     29421     29423     29425     29424     29426     29428     29427     29429
     29431     29430     29432     29434     29433     29435     29437     29436     29438
     29440     29439     29441     29443     29442     29444     29446     29445     29447
     29449     29448     29450     29452     29451     29453     29455     29454     29456
     29458     29457     29459     29461     29460     29462     29464     29463     29465
     29467     29466     29468     29470     29469     29471     29473     29472     29474
     29476     29475     29477     29479     29478     29480     29482     29481     29483
     29485     29484     29486     29488     29487     29489     29491     29490     29492
     29494     29493     29495     29497     29496     29498     29500     29499     29501
     29503     29502     29504     29506     29505     29507     29509     29508     29510
     29512     29511     29513     29515     29514     29516     29518     29517     29519
     29521     29520     29522     29524     29523     29525     29527     29526     29528
     29530     29529     29531     29533     29532     29534     29536     29535     29537
     29539     29538     29540     29542     29541     29543     29545     29544     29546
     29548     29547     29549     29551     29550     29552     29554     29553     29555
     29557     29556     29558     29560     29559     29561     29563     29562     29564
     29566     29565     29567     29569     29568     29570     29572     29571     29573
     29575     29574     29576     29578     29577     29579     29581     29580     29582
     29584     29583     29585     29587     29586     29588     29590     29589     29591
     29593     29592     29594     29596     29595     29597     29599     29598     29600
     29602     29601     29603     29605     29604     29606     29608     29607     29609
     29611     29610     29612     29614     29613     29615     29617     29616     29618
     29620     29619     29621     29623     29622     29624     29626     29625     29627
     29629     29628     29630     29632     29631     29633     29635     29634     29636
     29638     29637     29639     29641     29640     29642     29644     29643     29645
     29647     29646     29648     29650     29649     29651     29653     29652     29654
     29656     29655     29657     29659     29658     29660     29662     29661     29663
     29665     29664     29666     29668     29667     29669     29671     29670     29672
     29674     29673     29675     29677     29676     29678     29680     29679     29681
     29683     29682     29684     29686     29685     29687     29689     29688     29690
     29692     29691     29693     29695     29694     29696     29698     29697     29699
     29701     29700     29702     29704     29703     29705     29707     29706     29708
     29710     29709     29711     29713     29712     29714     29716     29715     29717
     29719     29718     29720     29722     29721     29723     29725     29724     29726
     29728     29727     29729     29731     29730     29732     29734     29733     29735
     29737     29736     29738     29740     29739     29741     29743     29742     29744
     29746     29745     29747     29749     29748     29750     29752     29751     29753
     29755     29754     29756     29758     29757     29759     29761     29760     29762
     29764     29763     29765     29767     29766     29768     29770     29769     29771
     29773     29772     29774     29776     29775     29777     29779     29778     29780
     29782     29781     29783     29785     29784     29786     29788     29787     29789
     29791     29790     29792     29794     29793     29795     29797     29796     29798
     29800     29799     29801     29803     29802     29804     29806     29805     29807
     29809     29808     29810     29812     29811     29813     29815     29814     29816
     29818     29817     29819     29821     29820     29822     29824     29823     29825
     29827     29826     29828     29830     29829     29831     29833     29832     29834
     29836     29835     29837     29839     29838     29840     29842     29841     29843
     29845     29844     29846     29848     29847     29849     29851     29850     29852
     29854     29853     29855     29857     29856     29858     29860     29859     29861
     29863     29862     29864     29866     29865     29867     29869     29868     29870
     29872     29871     29873     29875     29874     29876     29878     29877     29879
     29881     29880     29882     29884     29883     29885     29887     29886     29888
     29890     29889     29891     29893     29892     29894     29896     29895     29897
     29899     29898     29900     29902     29901     29903     29905     29904     29906
     29908     29907     29909     29911     29910     29912     29914     29913     29915
     29917     29916     29918     29920     29919     29921     29923     29922     29924
     29926     29925     29927     29929     29928     29930     29932     29931     29933
     29935     29934     29936     29938     29937     29939     29941     29940     29942
     29944     29943     29945     29947     29946     29948     29950     29949     29951
     29953     29952     29954     29956     29955     29957     29959     29958     29960
     29962     29961     29963     29965     29964     29966     29968     29967     29969
     29971     29970     29972     29974     29973     29975     29977     29976     29978
     29980     29979     29981     29983     29982     29984     29986     29985     29987
     29989     29988     29990     29992     29991     29993     29995     29994     29996
     29998     29997     29999     30001     30000     30002     30004     30003     30005
     30007     30006     30008     30010     30009     30011     30013     30012     30014
     30016     30015     30017     30019     30018     30020     30022     30021     30023
     30025     30024     30026     30028     30027     30029     30031     30030     30032
     30034     30033     30035     30037     30036     30038     30040     30039     30041
     30043     30042     30044     30046     30045     30047     30049     30048     30050
     30052     30051     30053     30055     30054     30056     30058     30057     30059
     30061     30060     30062     30064     30063     30065     30067     30066     30068
     30070     30069     30071     30073     30072     30074     30076     30075     30077
     30079     30078     30080     30082     30081     30083     30085     30084     30086
     30088     30087     30089     30091     30090     30092     30094     30093     30095
     30097     30096     30098     30100     30099     30101     30103     30102     30104
     30106     30105     30107     30109     30108     30110     30112     30111     30113
     30115     30114     30116     30118     30117     30119     30121     30120     30122
     30124     30123     30125     30127     30126     30128     30130     30129     30131
     30133     30132     30134     30136     30135     30137     30139     30138     30140
     30142     30141     30143     30145     30144     30146     30148     30147     30149
     30151     30150     30152     30154     30153     30155     30157     30156     30158
     30160     30159     30161     30163     30162     30164     30166     30165     30167
     30169     30168     30170     30172     30171     30173     30175     30174     30176
     30178     30177     30179     30181     30180     30182     30184     30183     30185
     30187     30186     30188     30190     30189     30191     30193     30192     30194
     30196     30195     30197     30199     30198     30200     30202     30201     30203
     30205     30204     30206     30208     30207     30209     30211     30210     30212
     30214     30213     30215     30217     30216     30218     30220     30219     30221
     30223     30222     30224     30226     30225     30227     30229     30228     30230
     30232     30231     30233     30235     30234     30236     30238     30237     30239
     30241     30240     30242     30244     30243     30245     30247     30246     30248
     30250     30249     30251     30253     30252     30254     30256     30255     30257
     30259     30258     30260     30262     30261     30263     30265     30264     30266
     30268     30267     30269     30271     30270     30272     30274     30273     30275
     30277     30276     30278     30280     30279     30281     30283     30282     30284
     30286     30285     30287     30289     30288     30290     30292     30291     30293
     30295     30294     30296     30298     30297     30299     30301     30300     30302
     30304     30303     30305     30307     30306     30308     30310     30309     30311
     30313     30312     30314     30316     30315     30317     30319     30318     30320
     30322     30321     30323     30325     30324     30326     30328     30327     30329
     30331     30330     30332     30334     30333     30335     30337     30336     30338
     30340     30339     30341     30343     30342     30344     30346     30345     30347
     30349     30348     30350     30352     30351     30353     30355     30354     30356
     30358     30357     30359     30361     30360     30362     30364     30363     30365
     30367     30366     30368     30370     30369     30371     30373     30372     30374
     30376     30375     30377     30379     30378     30380     30382     30381     30383
     30385     30384     30386     30388     30387     30389     30391     30390     30392
     30394     30393     30395     30397     30396     30398     30400     30399     30401
     30403     30402     30404     30406     30405     30407     30409     30408     30410
     30412     30411     30413     30415     30414     30416     30418     30417     30419
     30421     30420     30422     30424     30423     30425     30427     30426     30428
     30430     30429     30431     30433     30432     30434     30436     30435     30437
     30439     30438     30440     30442     30441     30443     30445     30444     30446
     30448     30447     30449     30451     30450     30452     30454     30453     30455
     30457     30456     30458     30460     30459     30461     30463     30462     30464
     30466     30465     30467     30469     30468     30470     30472     30471     30473
     30475     30474     30476     30478     30477     30479     30481     30480     30482
     30484     30483     30485     30487     30486     30488     30490     30489     30491
     30493     30492     30494     30496     30495     30497     30499     30498     30500
     30502     30501     30503     30505     30504     30506     30508     30507     30509
     30511     30510     30512     30514     30513     30515     30517     30516     30518
     30520     30519     30521     30523     30522     30524     30526     30525     30527
     30529     30528     30530     30532     30531     30533     30535     30534     30536
     30538     30537     30539     30541     30540     30542     30544     30543     30545
     30547     30546     30548     30550     30549     30551     30553     30552     30554
     30556     30555     30557     30559     30558     30560     30562     30561     30563
     30565     30564     30566     30568     30567     30569     30571     30570     30572
     30574     30573     30575     30577     30576     30578     30580     30579     30581
     30583     30582     30584     30586     30585     30587     30589     30588     30590
     30592     30591     30593     30595     30594     30596     30598     30597     30599
     30601     30600     30602     30604     30603     30605     30607     30606     30608
     30610     30609     30611     30613     30612     30614     30616     30615     30617
     30619     30618     30620     30622     30621     30623     30625     30624     30626
     30628     30627     30629     30631     30630     30632     30634     30633     30635
     30637     30636     30638     30640     30639     30641     30643     30642     30644
     30646     30645     30647     30649     30648     30650     30652     30651     30653
     30655     30654     30656     30658     30657     30659     30661     30660     30662
     30664     30663     30665     30667     30666     30668     30670     30669     30671
     30673     30672     30674     30676     30675     30677     30679     30678     30680
     30682     30681     30683     30685     30684     30686     30688     30687     30689
     30691     30690     30692     30694     30693     30695     30697     30696     30698
     30700     30699     30701     30703     30702     30704     30706     30705     30707
     30709     30708     30710     30712     30711     30713     30715     30714     30716
     30718     30717     30719     30721     30720     30722     30724     30723     30725
     30727     30726     30728     30730     30729     30731     30733     30732     30734
     30736     30735     30737     30739     30738     30740     30742     30741     30743
     30745     30744     30746     30748     30747     30749     30751     30750     30752
     30754     30753     30755     30757     30756     30758     30760     30759     30761
     30763     30762     30764     30766     30765     30767     30769     30768     30770
     30772     30771     30773     30775     30774     30776     30778     30777     30779
     30781     30780     30782     30784     30783     30785     30787     30786     30788
     30790     30789     30791     30793     30792     30794     30796     30795     30797
     30799     30798     30800     30802     30801     30803     30805     30804     30806
     30808     30807     30809     30811     30810     30812     30814     30813     30815
     30817     30816     30818     30820     30819     30821     30823     30822     30824
     30826     30825     30827     30829     30828     30830     30832     30831     30833
     30835     30834     30836     30838     30837     30839     30841     30840     30842
     30844     30843     30845     30847     30846     30848     30850     30849     30851
     30853     30852     30854     30856     30855     30857     30859     30858     30860
     30862     30861     30863     30865     30864     30866     30868     30867     30869
     30871     30870     30872     30874     30873     30875     30877     30876     30878
     30880     30879     30881     30883     30882     30884     30886     30885     30887
     30889     30888     30890     30892     30891     30893     30895     30894     30896
     30898     30897     30899     30901     30900     30902     30904     30903     30905
     30907     30906     30908     30910     30909     30911     30913     30912     30914
     30916     30915     30917     30919     30918     30920     30922     30921     30923
     30925     30924     30926     30928     30927     30929     30931     30930     30932
     30934     30933     30935     30937     30936     30938     30940     30939     30941
     30943     30942     30944     30946     30945     30947     30949     30948     30950
     30952     30951     30953     30955     30954     30956     30958     30957     30959
     30961     30960     30962     30964     30963     30965     30967     30966     30968
     30970     30969     30971     30973     30972     30974     30976     30975     30977
     30979     30978     30980     30982     30981     30983     30985     30984     30986
     30988     30987     30989     30991     30990     30992     30994     30993     30995
     30997     30996     30998     31000     30999     31001     31003     31002     31004
     31006     31005     31007     31009     31008     31010     31012     31011     31013
     31015     31014     31016     31018     31017     31019     31021     31020     31022
     31024     31023     31025     31027     31026     31028     31030     31029     31031
     31033     31032     31034     31036     31035     31037     31039     31038     31040
     31042     31041     31043     31045     31044     31046     31048     31047     31049
     31051     31050     31052     31054     31053     31055     31057     31056     31058
     31060     31059     31061     31063     31062     31064     31066     31065     31067
     31069     31068     31070     31072     31071     31073     31075     31074     31076
     31078     31077     31079     31081     31080     31082     31084     31083     31085
     31087     31086     31088     31090     31089     31091     31093     31092     31094
     31096     31095     31097     31099     31098     31100     31102     31101     31103
     31105     31104     31106     31108     31107     31109     31111     31110     31112
     31114     31113     31115     31117     31116     31118     31120     31119     31121
     31123     31122     31124     31126     31125     31127     31129     31128     31130
     31132     31131     31133     31135     31134     31136     31138     31137     31139
     31141     31140     31142     31144     31143     31145     31147     31146     31148
     31150     31149     31151     31153     31152     31154     31156     31155     31157
     31159     31158     31160     31162     31161     31163     31165     31164     31166
     31168     31167     31169     31171     31170     31172     31174     31173     31175
     31177     31176     31178     31180     31179     31181     31183     31182     31184
     31186     31185     31187     31189     31188     31190     31192     31191     31193
     31195     31194     31196     31198     31197     31199     31201     31200     31202
     31204     31203     31205     31207     31206     31208     31210     31209     31211
     31213     31212     31214     31216     31215     31217     31219     31218     31220
     31222     31221     31223     31225     31224     31226     31228     31227     31229
     31231     31230     31232     31234     31233     31235     31237     31236     31238
     31240     31239     31241     31243     31242     31244     31246     31245     31247
     31249     31248     31250     31252     31251     31253     31255     31254     31256
     31258     31257     31259     31261     31260     31262     31264     31263     31265
     31267     31266     31268     31270     31269     31271     31273     31272     31274
     31276     31275     31277     31279     31278     31280     31282     31281     31283
     31285     31284     31286     31288     31287     31289     31291     31290     31292
     31294     31293     31295     31297     31296     31298     31300     31299     31301
     31303     31302     31304     31306     31305     31307     31309     31308     31310
     31312     31311     31313     31315     31314     31316     31318     31317     31319
     31321     31320     31322     31324     31323     31325     31327     31326     31328
     31330     31329     31331     31333     31332     31334     31336     31335     31337
     31339     31338     31340     31342     31341     31343     31345     31344     31346
     31348     31347     31349     31351     31350     31352     31354     31353     31355
     31357     31356     31358     31360     31359     31361     31363     31362     31364
     31366     31365     31367     31369     31368     31370     31372     31371     31373
     31375     31374     31376     31378     31377     31379     31381     31380     31382
     31384     31383     31385     31387     31386     31388     31390     31389     31391
     31393     31392     31394     31396     31395     31397     31399     31398     31400
     31402     31401     31403     31405     31404     31406     31408     31407     31409
     31411     31410     31412     31414     31413     31415     31417     31416     31418
     31420     31419     31421     31423     31422     31424     31426     31425     31427
     31429     31428     31430     31432     31431     31433     31435     31434     31436
     31438     31437     31439     31441     31440     31442     31444     31443     31445
     31447     31446     31448     31450     31449     31451     31453     31452     31454
     31456     31455     31457     31459     31458     31460     31462     31461     31463
     31465     31464     31466     31468     31467     31469     31471     31470     31472
     31474     31473     31475     31477     31476     31478     31480     31479     31481
     31483     31482     31484     31486     31485     31487     31489     31488     31490
     31492     31491     31493     31495     31494     31496     31498     31497     31499
     31501     31500     31502     31504     31503     31505     31507     31506     31508
     31510     31509     31511     31513     31512     31514     31516     31515     31517
     31519     31518     31520     31522     31521     31523     31525     31524     31526
     31528     31527     31529     31531     31530     31532     31534     31533     31535
     31537     31536     31538     31540     31539     31541     31543     31542     31544
     31546     31545     31547     31549     31548     31550     31552     31551     31553
     31555     31554     31556     31558     31557     31559     31561     31560     31562
     31564     31563     31565     31567     31566     31568     31570     31569     31571
     31573     31572     31574     31576     31575     31577     31579     31578     31580
     31582     31581     31583     31585     31584     31586     31588     31587     31589
     31591     31590     31592     31594     31593     31595     31597     31596     31598
     31600     31599     31601     31603     31602     31604     31606     31605     31607
     31609     31608     31610     31612     31611     31613     31615     31614     31616
     31618     31617     31619     31621     31620     31622     31624     31623     31625
     31627     31626     31628     31630     31629     31631     31633     31632     31634
     31636     31635     31637     31639     31638     31640     31642     31641     31643
     31645     31644     31646     31648     31647     31649     31651     31650     31652
     31654     31653     31655     31657     31656     31658     31660     31659     31661
     31663     31662     31664     31666     31665     31667     31669     31668     31670
     31672     31671     31673     31675     31674     31676     31678     31677     31679
     31681     31680     31682     31684     31683     31685     31687     31686     31688
     31690     31689     31691     31693     31692     31694     31696     31695     31697
     31699     31698     31700     31702     31701     31703     31705     31704     31706
     31708     31707     31709     31711     31710     31712     31714     31713     31715
     31717     31716     31718     31720     31719     31721     31723     31722     31724
     31726     31725     31727     31729     31728     31730     31732     31731     31733
     31735     31734     31736     31738     31737     31739     31741     31740     31742
     31744     31743     31745     31747     31746     31748     31750     31749     31751
     31753     31752     31754     31756     31755     31757     31759     31758     31760
     31762     31761     31763     31765     31764     31766     31768     31767     31769
     31771     31770     31772     31774     31773     31775     31777     31776     31778
     31780     31779     31781     31783     31782     31784     31786     31785     31787
     31789     31788     31790     31792     31791     31793     31795     31794     31796
     31798     31797     31799     31801     31800     31802     31804     31803     31805
     31807     31806     31808     31810     31809     31811     31813     31812     31814
     31816     31815     31817     31819     31818     31820     31822     31821     31823
     31825     31824     31826     31828     31827     31829     31831     31830     31832
     31834     31833     31835     31837     31836     31838     31840     31839     31841
     31843     31842     31844     31846     31845     31847     31849     31848     31850
     31852     31851     31853     31855     31854     31856     31858     31857     31859
     31861     31860     31862     31864     31863     31865     31867     31866     31868
     31870     31869     31871     31873     31872     31874     31876     31875     31877
     31879     31878     31880     31882     31881     31883     31885     31884     31886
     31888     31887     31889     31891     31890     31892     31894     31893     31895
     31897     31896     31898     31900     31899     31901     31903     31902     31904
     31906     31905     31907     31909     31908     31910     31912     31911     31913
     31915     31914     31916     31918     31917     31919     31921     31920     31922
     31924     31923     31925     31927     31926     31928     31930     31929     31931
     31933     31932     31934     31936     31935     31937     31939     31938     31940
     31942     31941     31943     31945     31944     31946     31948     31947     31949
     31951     31950     31952     31954     31953     31955     31957     31956     31958
     31960     31959     31961     31963     31962     31964     31966     31965     31967
     31969     31968     31970     31972     31971     31973     31975     31974     31976
     31978     31977     31979     31981     31980     31982     31984     31983     31985
     31987     31986     31988     31990     31989     31991     31993     31992     31994
     31996     31995     31997     31999     31998     32000     32002     32001     32003
     32005     32004     32006     32008     32007     32009     32011     32010     32012
     32014     32013     32015     32017     32016     32018     32020     32019     32021
     32023     32022     32024     32026     32025     32027     32029     32028     32030
     32032     32031     32033     32035     32034     32036     32038     32037     32039
     32041     32040     32042     32044     32043     32045     32047     32046     32048
     32050     32049     32051     32053     32052     32054     32056     32055     32057
     32059     32058     32060     32062     32061     32063     32065     32064     32066
     32068     32067     32069     32071     32070     32072     32074     32073     32075
     32077     32076     32078     32080     32079     32081     32083     32082     32084
     32086     32085     32087     32089     32088     32090     32092     32091     32093
     32095     32094     32096     32098     32097     32099     32101     32100     32102
     32104     32103     32105     32107     32106     32108     32110     32109     32111
     32113     32112     32114     32116     32115     32117     32119     32118     32120
     32122     32121     32123     32125     32124     32126     32128     32127     32129
     32131     32130     32132     32134     32133     32135     32137     32136     32138
     32140     32139     32141     32143     32142     32144     32146     32145     32147
     32149     32148     32150     32152     32151     32153     32155     32154     32156
     32158     32157     32159     32161     32160     32162     32164     32163     32165
     32167     32166     32168     32170     32169     32171     32173     32172     32174
     32176     32175     32177     32179     32178     32180     32182     32181     32183
     32185     32184     32186     32188     32187     32189     32191     32190     32192
     32194     32193     32195     32197     32196     32198     32200     32199     32201
     32203     32202     32204     32206     32205     32207     32209     32208     32210
     32212     32211     32213     32215     32214     32216     32218     32217     32219
     32221     32220     32222     32224     32223     32225     32227     32226     32228
     32230     32229     32231     32233     32232     32234     32236     32235     32237
     32239     32238     32240     32242     32241     32243     32245     32244     32246
     32248     32247     32249     32251     32250     32252     32254     32253     32255
     32257     32256     32258     32260     32259     32261     32263     32262     32264
     32266     32265     32267     32269     32268     32270     32272     32271     32273
     32275     32274     32276     32278     32277     32279     32281     32280     32282
     32284     32283     32285     32287     32286     32288     32290     32289     32291
     32293     32292     32294     32296     32295     32297     32299     32298     32300
     32302     32301     32303     32305     32304     32306     32308     32307     32309
     32311     32310     32312     32314     32313     32315     32317     32316     32318
     32320     32319     32321     32323     32322     32324     32326     32325     32327
     32329     32328     32330     32332     32331     32333     32335     32334     32336
     32338     32337     32339     32341     32340     32342     32344     32343     32345
     32347     32346     32348     32350     32349     32351     32353     32352     32354
     32356     32355     32357     32359     32358     32360     32362     32361     32363
     32365     32364     32366     32368     32367     32369     32371     32370     32372
     32374     32373     32375     32377     32376     32378     32380     32379     32381
     32383     32382     32384     32386     32385     32387     32389     32388     32390
     32392     32391     32393     32395     32394     32396     32398     32397     32399
     32401     32400     32402     32404     32403     32405     32407     32406     32408
     32410     32409     32411     32413     32412     32414     32416     32415     32417
     32419     32418     32420     32422     32421     32423     32425     32424     32426
     32428     32427     32429     32431     32430     32432     32434     32433     32435
     32437     32436     32438     32440     32439     32441     32443     32442     32444
     32446     32445     32447     32449     32448     32450     32452     32451     32453
     32455     32454     32456     32458     32457     32459     32461     32460     32462
     32464     32463     32465     32467     32466     32468     32470     32469     32471
     32473     32472     32474     32476     32475     32477     32479     32478     32480
     32482     32481     32483     32485     32484     32486     32488     32487     32489
     32491     32490     32492     32494     32493     32495     32497     32496     32498
     32500     32499     32501     32503     32502     32504     32506     32505     32507
     32509     32508     32510     32512     32511     32513     32515     32514     32516
     32518     32517     32519     32521     32520     32522     32524     32523     32525
     32527     32526     32528     32530     32529     32531     32533     32532     32534
     32536     32535     32537     32539     32538     32540     32542     32541     32543
     32545     32544     32546     32548     32547     32549     32551     32550     32552
     32554     32553     32555     32557     32556     32558     32560     32559     32561
     32563     32562     32564     32566     32565     32567     32569     32568     32570
     32572     32571     32573     32575     32574     32576     32578     32577     32579
     32581     32580     32582     32584     32583     32585     32587     32586     32588
     32590     32589     32591     32593     32592     32594     32596     32595     32597
     32599     32598     32600     32602     32601     32603     32605     32604     32606
     32608     32607     32609     32611     32610     32612     32614     32613     32615
     32617     32616     32618     32620     32619     32621     32623     32622     32624
     32626     32625     32627     32629     32628     32630     32632     32631     32633
     32635     32634     32636     32638     32637     32639     32641     32640     32642
     32644     32643     32645     32647     32646     32648     32650     32649     32651
     32653     32652     32654     32656     32655     32657     32659     32658     32660
     32662     32661     32663     32665     32664     32666     32668     32667     32669
     32671     32670     32672     32674     32673     32675     32677     32676     32678
     32680     32679     32681     32683     32682     32684     32686     32685     32687
     32689     32688     32690     32692     32691     32693     32695     32694     32696
     32698     32697     32699     32701     32700     32702     32704     32703     32705
     32707     32706     32708     32710     32709     32711     32713     32712     32714
     32716     32715     32717     32719     32718     32720     32722     32721     32723
     32725     32724     32726     32728     32727     32729     32731     32730     32732
     32734     32733     32735     32737     32736     32738     32740     32739     32741
     32743     32742     32744     32746     32745     32747     32749     32748     32750
     32752     32751     32753     32755     32754     32756     32758     32757     32759
     32761     32760     32762     32764     32763     32765     32767     32766     32768
     32770     32769     32771     32773     32772     32774     32776     32775     32777
     32779     32778     32780     32782     32781     32783     32785     32784     32786
     32788     32787     32789     32791     32790     32792     32794     32793     32795
     32797     32796     32798     32800     32799     32801     32803     32802     32804
     32806     32805     32807     32809     32808     32810     32812     32811     32813
     32815     32814     32816     32818     32817     32819     32821     32820     32822
     32824     32823     32825     32827     32826     32828     32830     32829     32831
     32833     32832     32834     32836     32835     32837     32839     32838     32840
     32842     32841     32843     32845     32844     32846     32848     32847     32849
     32851     32850     32852     32854     32853     32855     32857     32856     32858
     32860     32859     32861     32863     32862     32864     32866     32865     32867
     32869     32868     32870     32872     32871     32873     32875     32874     32876
     32878     32877     32879     32881     32880     32882     32884     32883     32885
     32887     32886     32888     32890     32889     32891     32893     32892     32894
     32896     32895     32897     32899     32898     32900     32902     32901     32903
     32905     32904     32906     32908     32907     32909     32911     32910     32912
     32914     32913     32915     32917     32916     32918     32920     32919     32921
     32923     32922     32924     32926     32925     32927     32929     32928     32930
     32932     32931     32933     32935     32934     32936     32938     32937     32939
     32941     32940     32942     32944     32943     32945     32947     32946     32948
     32950     32949     32951     32953     32952     32954     32956     32955     32957
     32959     32958     32960     32962     32961     32963     32965     32964     32966
     32968     32967     32969     32971     32970     32972     32974     32973     32975
     32977     32976     32978     32980     32979     32981     32983     32982     32984
     32986     32985     32987     32989     32988     32990     32992     32991     32993
     32995     32994     32996     32998     32997     32999     33001     33000     33002
     33004     33003     33005     33007     33006     33008     33010     33009     33011
     33013     33012     33014     33016     33015     33017     33019     33018     33020
     33022     33021     33023     33025     33024     33026     33028     33027     33029
     33031     33030     33032     33034     33033     33035     33037     33036     33038
     33040     33039     33041     33043     33042     33044     33046     33045     33047
     33049     33048     33050     33052     33051     33053     33055     33054     33056
     33058     33057     33059     33061     33060     33062     33064     33063     33065
     33067     33066     33068     33070     33069     33071     33073     33072     33074
     33076     33075     33077     33079     33078     33080     33082     33081     33083
     33085     33084     33086     33088     33087     33089     33091     33090     33092
     33094     33093     33095     33097     33096     33098     33100     33099     33101
     33103     33102     33104     33106     33105     33107     33109     33108     33110
     33112     33111     33113     33115     33114     33116     33118     33117     33119
     33121     33120     33122     33124     33123     33125     33127     33126     33128
     33130     33129     33131     33133     33132     33134     33136     33135     33137
     33139     33138     33140     33142     33141     33143     33145     33144     33146
     33148     33147     33149     33151     33150     33152     33154     33153     33155
     33157     33156     33158     33160     33159     33161     33163     33162     33164
     33166     33165     33167     33169     33168     33170     33172     33171     33173
     33175     33174     33176     33178     33177     33179     33181     33180     33182
     33184     33183     33185     33187     33186     33188     33190     33189     33191
     33193     33192     33194     33196     33195     33197     33199     33198     33200
     33202     33201     33203     33205     33204     33206     33208     33207     33209
     33211     33210     33212     33214     33213     33215     33217     33216     33218
     33220     33219     33221     33223     33222     33224     33226     33225     33227
     33229     33228     33230     33232     33231     33233     33235     33234     33236
     33238     33237     33239     33241     33240     33242     33244     33243     33245
     33247     33246     33248     33250     33249     33251     33253     33252     33254
     33256     33255     33257     33259     33258     33260     33262     33261     33263
     33265     33264     33266     33268     33267     33269     33271     33270     33272
     33274     33273     33275     33277     33276     33278     33280     33279     33281
     33283     33282     33284     33286     33285     33287     33289     33288     33290
     33292     33291     33293     33295     33294     33296     33298     33297     33299
     33301     33300     33302     33304     33303     33305     33307     33306     33308
     33310     33309     33311     33313     33312     33314     33316     33315     33317
     33319     33318     33320     33322     33321     33323     33325     33324     33326
     33328     33327     33329     33331     33330     33332     33334     33333     33335
     33337     33336     33338     33340     33339     33341     33343     33342     33344
     33346     33345     33347     33349     33348     33350     33352     33351     33353
     33355     33354     33356     33358     33357     33359     33361     33360     33362
     33364     33363     33365     33367     33366     33368     33370     33369     33371
     33373     33372     33374     33376     33375     33377     33379     33378     33380
     33382     33381     33383     33385     33384     33386     33388     33387     33389
     33391     33390     33392     33394     33393     33395     33397     33396     33398
     33400     33399     33401     33403     33402     33404     33406     33405     33407
     33409     33408     33410     33412     33411     33413     33415     33414     33416
     33418     33417     33419     33421     33420     33422     33424     33423     33425
     33427     33426     33428     33430     33429     33431     33433     33432     33434
     33436     33435     33437     33439     33438     33440     33442     33441     33443
     33445     33444     33446     33448     33447     33449     33451     33450     33452
     33454     33453     33455     33457     33456     33458     33460     33459     33461
     33463     33462     33464     33466     33465     33467     33469     33468     33470
     33472     33471     33473     33475     33474     33476     33478     33477     33479
     33481     33480     33482     33484     33483     33485     33487     33486     33488
     33490     33489     33491     33493     33492     33494     33496     33495     33497
     33499     33498     33500     33502     33501     33503     33505     33504     33506
     33508     33507     33509     33511     33510     33512     33514     33513     33515
     33517     33516     33518     33520     33519     33521     33523     33522     33524
     33526     33525     33527     33529     33528     33530     33532     33531     33533
     33535     33534     33536     33538     33537     33539     33541     33540     33542
     33544     33543     33545     33547     33546     33548     33550     33549     33551
     33553     33552     33554     33556     33555     33557     33559     33558     33560
     33562     33561     33563     33565     33564     33566     33568     33567     33569
     33571     33570     33572     33574     33573     33575     33577     33576     33578
     33580     33579     33581     33583     33582     33584     33586     33585     33587
     33589     33588     33590     33592     33591     33593     33595     33594     33596
     33598     33597     33599     33601     33600     33602     33604     33603     33605
     33607     33606     33608     33610     33609     33611     33613     33612     33614
     33616     33615     33617     33619     33618     33620     33622     33621     33623
     33625     33624     33626     33628     33627     33629     33631     33630     33632
     33634     33633     33635     33637     33636     33638     33640     33639     33641
     33643     33642     33644     33646     33645     33647     33649     33648     33650
     33652     33651     33653     33655     33654     33656     33658     33657     33659
     33661     33660     33662     33664     33663     33665     33667     33666     33668
     33670     33669     33671     33673     33672     33674     33676     33675     33677
     33679     33678     33680     33682     33681     33683     33685     33684     33686
     33688     33687     33689     33691     33690     33692     33694     33693     33695
     33697     33696     33698     33700     33699     33701     33703     33702     33704
     33706     33705     33707     33709     33708     33710     33712     33711     33713
     33715     33714     33716     33718     33717     33719     33721     33720     33722
     33724     33723     33725     33727     33726     33728     33730     33729     33731
     33733     33732     33734     33736     33735     33737     33739     33738     33740
     33742     33741     33743     33745     33744     33746     33748     33747     33749
     33751     33750     33752     33754     33753     33755     33757     33756     33758
     33760     33759     33761     33763     33762     33764     33766     33765     33767
     33769     33768     33770     33772     33771     33773     33775     33774     33776
     33778     33777     33779     33781     33780     33782     33784     33783     33785
     33787     33786     33788     33790     33789     33791     33793     33792     33794
     33796     33795     33797     33799     33798     33800     33802     33801     33803
     33805     33804     33806     33808     33807     33809     33811     33810     33812
     33814     33813     33815     33817     33816     33818     33820     33819     33821
     33823     33822     33824     33826     33825     33827     33829     33828     33830
     33832     33831     33833     33835     33834     33836     33838     33837     33839
     33841     33840     33842     33844     33843     33845     33847     33846     33848
     33850     33849     33851     33853     33852     33854     33856     33855     33857
     33859     33858     33860     33862     33861     33863     33865     33864     33866
     33868     33867     33869     33871     33870     33872     33874     33873     33875
     33877     33876     33878     33880     33879     33881     33883     33882     33884
     33886     33885     33887     33889     33888     33890     33892     33891     33893
     33895     33894     33896     33898     33897     33899     33901     33900     33902
     33904     33903     33905     33907     33906     33908     33910     33909     33911
     33913     33912     33914     33916     33915     33917     33919     33918     33920
     33922     33921     33923     33925     33924     33926     33928     33927     33929
     33931     33930     33932     33934     33933     33935     33937     33936     33938
     33940     33939     33941     33943     33942     33944     33946     33945     33947
     33949     33948     33950     33952     33951     33953     33955     33954     33956
     33958     33957     33959     33961     33960     33962     33964     33963     33965
     33967     33966     33968     33970     33969     33971     33973     33972     33974
     33976     33975     33977     33979     33978     33980     33982     33981     33983
     33985     33984     33986     33988     33987     33989     33991     33990     33992
     33994     33993     33995     33997     33996     33998     34000     33999     34001
     34003     34002     34004     34006     34005     34007     34009     34008     34010
     34012     34011     34013     34015     34014     34016     34018     34017     34019
     34021     34020     34022     34024     34023     34025     34027     34026     34028
     34030     34029     34031     34033     34032     34034     34036     34035     34037
     34039     34038     34040     34042     34041     34043     34045     34044     34046
     34048     34047     34049     34051     34050     34052     34054     34053     34055
     34057     34056     34058     34060     34059     34061     34063     34062     34064
     34066     34065     34067     34069     34068     34070     34072     34071     34073
     34075     34074     34076     34078     34077     34079     34081     34080     34082
     34084     34083     34085     34087     34086     34088     34090     34089     34091
     34093     34092     34094     34096     34095     34097     34099     34098     34100
     34102     34101     34103     34105     34104     34106     34108     34107     34109
     34111     34110     34112     34114     34113     34115     34117     34116     34118
     34120     34119     34121     34123     34122     34124     34126     34125     34127
     34129     34128     34130     34132     34131     34133     34135     34134     34136
     34138     34137     34139     34141     34140     34142     34144     34143     34145
     34147     34146     34148     34150     34149     34151     34153     34152     34154
     34156     34155     34157     34159     34158     34160     34162     34161     34163
     34165     34164     34166     34168     34167     34169     34171     34170     34172
     34174     34173     34175     34177     34176     34178     34180     34179     34181
     34183     34182     34184     34186     34185     34187     34189     34188     34190
     34192     34191     34193     34195     34194     34196     34198     34197     34199
     34201     34200     34202     34204     34203     34205     34207     34206     34208
     34210     34209     34211     34213     34212     34214     34216     34215     34217
     34219     34218     34220     34222     34221     34223     34225     34224     34226
     34228     34227     34229     34231     34230     34232     34234     34233     34235
     34237     34236     34238     34240     34239     34241     34243     34242     34244
     34246     34245     34247     34249     34248     34250     34252     34251     34253
     34255     34254     34256     34258     34257     34259     34261     34260     34262
     34264     34263     34265     34267     34266     34268     34270     34269     34271
     34273     34272     34274     34276     34275     34277     34279     34278     34280
     34282     34281     34283     34285     34284     34286     34288     34287     34289
     34291     34290     34292     34294     34293     34295     34297     34296     34298
     34300     34299     34301     34303     34302     34304     34306     34305     34307
     34309     34308     34310     34312     34311     34313     34315     34314     34316
     34318     34317     34319     34321     34320     34322     34324     34323     34325
     34327     34326     34328     34330     34329     34331     34333     34332     34334
     34336     34335     34337     34339     34338     34340     34342     34341     34343
     34345     34344     34346     34348     34347     34349     34351     34350     34352
     34354     34353     34355     34357     34356     34358     34360     34359     34361
     34363     34362     34364     34366     34365     34367     34369     34368     34370
     34372     34371     34373     34375     34374     34376     34378     34377     34379
     34381     34380     34382     34384     34383     34385     34387     34386     34388
     34390     34389     34391     34393     34392     34394     34396     34395     34397
     34399     34398     34400     34402     34401     34403     34405     34404     34406
     34408     34407     34409     34411     34410     34412     34414     34413     34415
     34417     34416     34418     34420     34419     34421     34423     34422     34424
     34426     34425     34427     34429     34428     34430     34432     34431     34433
     34435     34434     34436     34438     34437     34439     34441     34440     34442
     34444     34443     34445     34447     34446     34448     34450     34449     34451
     34453     34452     34454     34456     34455     34457     34459     34458     34460
     34462     34461     34463     34465     34464     34466     34468     34467     34469
     34471     34470     34472     34474     34473     34475     34477     34476     34478
     34480     34479     34481     34483     34482     34484     34486     34485     34487
     34489     34488     34490     34492     34491     34493     34495     34494     34496
     34498     34497     34499     34501     34500     34502     34504     34503     34505
     34507     34506     34508     34510     34509     34511     34513     34512     34514
     34516     34515     34517     34519     34518     34520     34522     34521     34523
     34525     34524     34526     34528     34527     34529     34531     34530     34532
     34534     34533     34535     34537     34536     34538     34540     34539     34541
     34543     34542     34544     34546     34545     34547     34549     34548     34550
     34552     34551     34553     34555     34554     34556     34558     34557     34559
     34561     34560     34562     34564     34563     34565     34567     34566     34568
     34570     34569     34571     34573     34572     34574     34576     34575     34577
     34579     34578     34580     34582     34581     34583     34585     34584     34586
     34588     34587     34589     34591     34590     34592     34594     34593     34595
     34597     34596     34598     34600     34599     34601     34603     34602     34604
     34606     34605     34607     34609     34608     34610     34612     34611     34613
     34615     34614     34616     34618     34617     34619     34621     34620     34622
     34624     34623     34625     34627     34626     34628     34630     34629     34631
     34633     34632     34634     34636     34635     34637     34639     34638     34640
     34642     34641     34643     34645     34644     34646     34648     34647     34649
     34651     34650     34652     34654     34653     34655     34657     34656     34658
     34660     34659     34661     34663     34662     34664     34666     34665     34667
     34669     34668     34670     34672     34671     34673     34675     34674     34676
     34678     34677     34679     34681     34680     34682     34684     34683     34685
     34687     34686     34688     34690     34689     34691     34693     34692     34694
     34696     34695     34697     34699     34698     34700     34702     34701     34703
     34705     34704     34706     34708     34707     34709     34711     34710     34712
     34714     34713     34715     34717     34716     34718     34720     34719     34721
     34723     34722     34724     34726     34725     34727     34729     34728     34730
     34732     34731     34733     34735     34734     34736     34738     34737     34739
     34741     34740     34742     34744     34743     34745     34747     34746     34748
     34750     34749     34751     34753     34752     34754     34756     34755     34757
     34759     34758     34760     34762     34761     34763     34765     34764     34766
     34768     34767     34769     34771     34770     34772     34774     34773     34775
     34777     34776     34778     34780     34779     34781     34783     34782     34784
     34786     34785     34787     34789     34788     34790     34792     34791     34793
     34795     34794     34796     34798     34797     34799     34801     34800     34802
     34804     34803     34805     34807     34806     34808     34810     34809     34811
     34813     34812     34814     34816     34815     34817     34819     34818     34820
     34822     34821     34823     34825     34824     34826     34828     34827     34829
     34831     34830     34832     34834     34833     34835     34837     34836     34838
     34840     34839     34841     34843     34842     34844     34846     34845     34847
     34849     34848     34850     34852     34851     34853     34855     34854     34856
     34858     34857     34859     34861     34860     34862     34864     34863     34865
     34867     34866     34868     34870     34869     34871     34873     34872     34874
     34876     34875     34877     34879     34878     34880     34882     34881     34883
     34885     34884     34886     34888     34887     34889     34891     34890     34892
     34894     34893     34895     34897     34896     34898     34900     34899     34901
     34903     34902     34904     34906     34905     34907     34909     34908     34910
     34912     34911     34913     34915     34914     34916     34918     34917     34919
     34921     34920     34922     34924     34923     34925     34927     34926     34928
     34930     34929     34931     34933     34932     34934     34936     34935     34937
     34939     34938     34940     34942     34941     34943     34945     34944     34946
     34948     34947     34949     34951     34950     34952     34954     34953     34955
     34957     34956     34958     34960     34959     34961     34963     34962     34964
     34966     34965     34967     34969     34968     34970     34972     34971     34973
     34975     34974     34976     34978     34977     34979     34981     34980     34982
     34984     34983     34985     34987     34986     34988     34990     34989     34991
     34993     34992     34994     34996     34995     34997     34999     34998     35000
     35002     35001     35003     35005     35004     35006     35008     35007     35009
     35011     35010     35012     35014     35013     35015     35017     35016     35018
     35020     35019     35021     35023     35022     35024     35026     35025     35027
     35029     35028     35030     35032     35031     35033     35035     35034     35036
     35038     35037     35039     35041     35040     35042     35044     35043     35045
     35047     35046     35048     35050     35049     35051     35053     35052     35054
     35056     35055     35057     35059     35058     35060     35062     35061     35063
     35065     35064     35066     35068     35067     35069     35071     35070     35072
     35074     35073     35075     35077     35076     35078     35080     35079     35081
     35083     35082     35084     35086     35085     35087     35089     35088     35090
     35092     35091     35093     35095     35094     35096     35098     35097     35099
     35101     35100     35102     35104     35103     35105     35107     35106     35108
     35110     35109     35111     35113     35112     35114     35116     35115     35117
     35119     35118     35120     35122     35121     35123     35125     35124     35126
     35128     35127     35129     35131     35130     35132     35134     35133     35135
     35137     35136     35138     35140     35139     35141     35143     35142     35144
     35146     35145     35147     35149     35148     35150     35152     35151     35153
     35155     35154     35156     35158     35157     35159     35161     35160     35162
     35164     35163     35165     35167     35166     35168     35170     35169     35171
     35173     35172     35174     35176     35175     35177     35179     35178     35180
     35182     35181     35183     35185     35184     35186     35188     35187     35189
     35191     35190     35192     35194     35193     35195     35197     35196     35198
     35200     35199     35201     35203     35202     35204     35206     35205     35207
     35209     35208     35210     35212     35211     35213     35215     35214     35216
     35218     35217     35219     35221     35220     35222     35224     35223     35225
     35227     35226     35228     35230     35229     35231     35233     35232     35234
     35236     35235     35237     35239     35238     35240     35242     35241     35243
     35245     35244     35246     35248     35247     35249     35251     35250     35252
     35254     35253     35255     35257     35256     35258     35260     35259     35261
     35263     35262     35264     35266     35265     35267     35269     35268     35270
     35272     35271     35273     35275     35274     35276     35278     35277     35279
     35281     35280     35282     35284     35283     35285     35287     35286     35288
     35290     35289     35291     35293     35292     35294     35296     35295     35297
     35299     35298     35300     35302     35301     35303     35305     35304     35306
     35308     35307     35309     35311     35310     35312     35314     35313     35315
     35317     35316     35318     35320     35319     35321     35323     35322     35324
     35326     35325     35327     35329     35328     35330     35332     35331     35333
     35335     35334     35336     35338     35337     35339     35341     35340     35342
     35344     35343     35345     35347     35346     35348     35350     35349     35351
     35353     35352     35354     35356     35355     35357     35359     35358     35360
     35362     35361     35363     35365     35364     35366     35368     35367     35369
     35371     35370     35372     35374     35373     35375     35377     35376     35378
     35380     35379     35381     35383     35382     35384     35386     35385     35387
     35389     35388     35390     35392     35391     35393     35395     35394     35396
     35398     35397     35399     35401     35400     35402     35404     35403     35405
     35407     35406     35408     35410     35409     35411     35413     35412     35414
     35416     35415     35417     35419     35418     35420     35422     35421     35423
     35425     35424     35426     35428     35427     35429     35431     35430     35432
     35434     35433     35435     35437     35436     35438     35440     35439     35441
     35443     35442     35444     35446     35445     35447     35449     35448     35450
     35452     35451     35453     35455     35454     35456     35458     35457     35459
     35461     35460     35462     35464     35463     35465     35467     35466     35468
     35470     35469     35471     35473     35472     35474     35476     35475     35477
     35479     35478     35480     35482     35481     35483     35485     35484     35486
     35488     35487     35489     35491     35490     35492     35494     35493     35495
     35497     35496     35498     35500     35499     35501     35503     35502     35504
     35506     35505     35507     35509     35508     35510     35512     35511     35513
     35515     35514     35516     35518     35517     35519     35521     35520     35522
     35524     35523     35525     35527     35526     35528     35530     35529     35531
     35533     35532     35534     35536     35535     35537     35539     35538     35540
     35542     35541     35543     35545     35544     35546     35548     35547     35549
     35551     35550     35552     35554     35553     35555     35557     35556     35558
     35560     35559     35561     35563     35562     35564     35566     35565     35567
     35569     35568     35570     35572     35571     35573     35575     35574     35576
     35578     35577     35579     35581     35580     35582     35584     35583     35585
     35587     35586     35588     35590     35589     35591     35593     35592     35594
     35596     35595     35597     35599     35598     35600     35602     35601     35603
     35605     35604     35606     35608     35607     35609     35611     35610     35612
     35614     35613     35615     35617     35616     35618     35620     35619     35621
     35623     35622     35624     35626     35625     35627     35629     35628     35630
     35632     35631     35633     35635     35634     35636     35638     35637     35639
     35641     35640     35642     35644     35643     35645     35647     35646     35648
     35650     35649     35651     35653     35652     35654     35656     35655     35657
     35659     35658     35660     35662     35661     35663     35665     35664     35666
     35668     35667     35669     35671     35670     35672     35674     35673     35675
     35677     35676     35678     35680     35679     35681     35683     35682     35684
     35686     35685     35687     35689     35688     35690     35692     35691     35693
     35695     35694     35696     35698     35697     35699     35701     35700     35702
     35704     35703     35705     35707     35706     35708     35710     35709     35711
     35713     35712     35714     35716     35715     35717     35719     35718     35720
     35722     35721     35723     35725     35724     35726     35728     35727     35729
     35731     35730     35732     35734     35733     35735     35737     35736     35738
     35740     35739     35741     35743     35742     35744     35746     35745     35747
     35749     35748     35750     35752     35751     35753     35755     35754     35756
     35758     35757     35759     35761     35760     35762     35764     35763     35765
     35767     35766     35768     35770     35769     35771     35773     35772     35774
     35776     35775     35777     35779     35778     35780     35782     35781     35783
     35785     35784     35786     35788     35787     35789     35791     35790     35792
     35794     35793     35795     35797     35796     35798     35800     35799     35801
     35803     35802     35804     35806     35805     35807     35809     35808     35810
     35812     35811     35813     35815     35814     35816     35818     35817     35819
     35821     35820     35822     35824     35823     35825     35827     35826     35828
     35830     35829     35831     35833     35832     35834     35836     35835     35837
     35839     35838     35840     35842     35841     35843     35845     35844     35846
     35848     35847     35849     35851     35850     35852     35854     35853     35855
     35857     35856     35858     35860     35859     35861     35863     35862     35864
     35866     35865     35867     35869     35868     35870     35872     35871     35873
     35875     35874     35876     35878     35877     35879     35881     35880     35882
     35884     35883     35885     35887     35886     35888     35890     35889     35891
     35893     35892     35894     35896     35895     35897     35899     35898     35900
     35902     35901     35903     35905     35904     35906     35908     35907     35909
     35911     35910     35912     35914     35913     35915     35917     35916     35918
     35920     35919     35921     35923     35922     35924     35926     35925     35927
     35929     35928     35930     35932     35931     35933     35935     35934     35936
     35938     35937     35939     35941     35940     35942     35944     35943     35945
     35947     35946     35948     35950     35949     35951     35953     35952     35954
     35956     35955     35957     35959     35958     35960     35962     35961     35963
     35965     35964     35966     35968     35967     35969     35971     35970     35972
     35974     35973     35975     35977     35976     35978     35980     35979     35981
     35983     35982     35984     35986     35985     35987     35989     35988     35990
     35992     35991     35993     35995     35994     35996     35998     35997     35999
     36001     36000     36002     36004     36003     36005     36007     36006     36008
     36010     36009     36011     36013     36012     36014     36016     36015     36017
     36019     36018     36020     36022     36021     36023     36025     36024     36026
     36028     36027     36029     36031     36030     36032     36034     36033     36035
     36037     36036     36038     36040     36039     36041     36043     36042     36044
     36046     36045     36047     36049     36048     36050     36052     36051     36053
     36055     36054     36056     36058     36057     36059     36061     36060     36062
     36064     36063     36065     36067     36066     36068     36070     36069     36071
     36073     36072     36074     36076     36075     36077     36079     36078     36080
     36082     36081     36083     36085     36084     36086     36088     36087     36089
     36091     36090     36092     36094     36093     36095     36097     36096     36098
     36100     36099     36101     36103     36102     36104     36106     36105     36107
     36109     36108     36110     36112     36111     36113     36115     36114     36116
     36118     36117     36119     36121     36120     36122     36124     36123     36125
     36127     36126     36128     36130     36129     36131     36133     36132     36134
     36136     36135     36137     36139     36138     36140     36142     36141     36143
     36145     36144     36146     36148     36147     36149     36151     36150     36152
     36154     36153     36155     36157     36156     36158     36160     36159     36161
     36163     36162     36164     36166     36165     36167     36169     36168     36170
     36172     36171     36173     36175     36174     36176     36178     36177     36179
     36181     36180     36182     36184     36183     36185     36187     36186     36188
     36190     36189     36191     36193     36192     36194     36196     36195     36197
     36199     36198     36200     36202     36201     36203     36205     36204     36206
     36208     36207     36209     36211     36210     36212     36214     36213     36215
     36217     36216     36218     36220     36219     36221     36223     36222     36224
     36226     36225     36227     36229     36228     36230     36232     36231     36233
     36235     36234     36236     36238     36237     36239     36241     36240     36242
     36244     36243     36245     36247     36246     36248     36250     36249     36251
     36253     36252     36254     36256     36255     36257     36259     36258     36260
     36262     36261     36263     36265     36264     36266     36268     36267     36269
     36271     36270     36272     36274     36273     36275     36277     36276     36278
     36280     36279     36281     36283     36282     36284     36286     36285     36287
     36289     36288     36290     36292     36291     36293     36295     36294     36296
     36298     36297     36299     36301     36300     36302     36304     36303     36305
     36307     36306     36308     36310     36309     36311     36313     36312     36314
     36316     36315     36317     36319     36318     36320     36322     36321     36323
     36325     36324     36326     36328     36327     36329     36331     36330     36332
     36334     36333     36335     36337     36336     36338     36340     36339     36341
     36343     36342     36344     36346     36345     36347     36349     36348     36350
     36352     36351     36353     36355     36354     36356     36358     36357     36359
     36361     36360     36362     36364     36363     36365     36367     36366     36368
     36370     36369     36371     36373     36372     36374     36376     36375     36377
     36379     36378     36380     36382     36381     36383     36385     36384     36386
     36388     36387     36389     36391     36390     36392     36394     36393     36395
     36397     36396     36398     36400     36399     36401     36403     36402     36404
     36406     36405     36407     36409     36408     36410     36412     36411     36413
     36415     36414     36416     36418     36417     36419     36421     36420     36422
     36424     36423     36425     36427     36426     36428     36430     36429     36431
     36433     36432     36434     36436     36435     36437     36439     36438     36440
     36442     36441     36443     36445     36444     36446     36448     36447     36449
     36451     36450     36452     36454     36453     36455     36457     36456     36458
     36460     36459     36461     36463     36462     36464     36466     36465     36467
     36469     36468     36470     36472     36471     36473     36475     36474     36476
     36478     36477     36479     36481     36480     36482     36484     36483     36485
     36487     36486     36488     36490     36489     36491     36493     36492     36494
     36496     36495     36497     36499     36498     36500     36502     36501     36503
     36505     36504     36506     36508     36507     36509     36511     36510     36512
     36514     36513     36515     36517     36516     36518     36520     36519     36521
     36523     36522     36524     36526     36525     36527     36529     36528     36530
     36532     36531     36533     36535     36534     36536     36538     36537     36539
     36541     36540     36542     36544     36543     36545     36547     36546     36548
     36550     36549     36551     36553     36552     36554     36556     36555     36557
     36559     36558     36560     36562     36561     36563     36565     36564     36566
     36568     36567     36569     36571     36570     36572     36574     36573     36575
     36577     36576     36578     36580     36579     36581     36583     36582     36584
     36586     36585     36587     36589     36588     36590     36592     36591     36593
     36595     36594     36596     36598     36597     36599     36601     36600     36602
     36604     36603     36605     36607     36606     36608     36610     36609     36611
     36613     36612     36614     36616     36615     36617     36619     36618     36620
     36622     36621     36623     36625     36624     36626     36628     36627     36629
     36631     36630     36632     36634     36633     36635     36637     36636     36638
     36640     36639     36641     36643     36642     36644     36646     36645     36647
     36649     36648     36650     36652     36651     36653     36655     36654     36656
     36658     36657     36659     36661     36660     36662     36664     36663     36665
     36667     36666     36668     36670     36669     36671     36673     36672     36674
     36676     36675     36677     36679     36678     36680     36682     36681     36683
     36685     36684     36686     36688     36687     36689     36691     36690     36692
     36694     36693     36695     36697     36696     36698     36700     36699     36701
     36703     36702     36704     36706     36705     36707     36709     36708     36710
     36712     36711     36713     36715     36714     36716     36718     36717     36719
     36721     36720     36722     36724     36723     36725     36727     36726     36728
     36730     36729     36731     36733     36732     36734     36736     36735     36737
     36739     36738     36740     36742     36741     36743     36745     36744     36746
     36748     36747     36749     36751     36750     36752     36754     36753     36755
     36757     36756     36758     36760     36759     36761     36763     36762     36764
     36766     36765     36767     36769     36768     36770     36772     36771     36773
     36775     36774     36776     36778     36777     36779     36781     36780     36782
     36784     36783     36785     36787     36786     36788     36790     36789     36791
     36793     36792     36794     36796     36795     36797     36799     36798     36800
     36802     36801     36803     36805     36804     36806     36808     36807     36809
     36811     36810     36812     36814     36813     36815     36817     36816     36818
     36820     36819     36821     36823     36822     36824     36826     36825     36827
     36829     36828     36830     36832     36831     36833     36835     36834     36836
     36838     36837     36839     36841     36840     36842     36844     36843     36845
     36847     36846     36848     36850     36849     36851     36853     36852     36854
     36856     36855     36857     36859     36858     36860     36862     36861     36863
     36865     36864     36866     36868     36867     36869     36871     36870     36872
     36874     36873     36875     36877     36876     36878     36880     36879     36881
     36883     36882     36884     36886     36885     36887     36889     36888     36890
     36892     36891     36893     36895     36894     36896     36898     36897     36899
     36901     36900     36902     36904     36903     36905     36907     36906     36908
     36910     36909     36911     36913     36912     36914     36916     36915     36917
     36919     36918     36920     36922     36921     36923     36925     36924     36926
     36928     36927     36929     36931     36930     36932     36934     36933     36935
     36937     36936     36938     36940     36939     36941     36943     36942     36944
     36946     36945     36947     36949     36948     36950     36952     36951     36953
     36955     36954     36956     36958     36957     36959     36961     36960     36962
     36964     36963     36965     36967     36966     36968     36970     36969     36971
     36973     36972     36974     36976     36975     36977     36979     36978     36980
     36982     36981     36983     36985     36984     36986     36988     36987     36989
     36991     36990     36992     36994     36993     36995     36997     36996     36998
     37000     36999     37001     37003     37002     37004     37006     37005     37007
     37009     37008     37010     37012     37011     37013     37015     37014     37016
     37018     37017     37019     37021     37020     37022     37024     37023     37025
     37027     37026     37028     37030     37029     37031     37033     37032     37034
     37036     37035     37037     37039     37038     37040     37042     37041     37043
     37045     37044     37046     37048     37047     37049     37051     37050     37052
     37054     37053     37055     37057     37056     37058     37060     37059     37061
     37063     37062     37064     37066     37065     37067     37069     37068     37070
     37072     37071     37073     37075     37074     37076     37078     37077     37079
     37081     37080     37082     37084     37083     37085     37087     37086     37088
     37090     37089     37091     37093     37092     37094     37096     37095     37097
     37099     37098     37100     37102     37101     37103     37105     37104     37106
     37108     37107     37109     37111     37110     37112     37114     37113     37115
     37117     37116     37118     37120     37119     37121     37123     37122     37124
     37126     37125     37127     37129     37128     37130     37132     37131     37133
     37135     37134     37136     37138     37137     37139     37141     37140     37142
     37144     37143     37145     37147     37146     37148     37150     37149     37151
     37153     37152     37154     37156     37155     37157     37159     37158     37160
     37162     37161     37163     37165     37164     37166     37168     37167     37169
     37171     37170     37172     37174     37173     37175     37177     37176     37178
     37180     37179     37181     37183     37182     37184     37186     37185     37187
     37189     37188     37190     37192     37191     37193     37195     37194     37196
     37198     37197     37199     37201     37200     37202     37204     37203     37205
     37207     37206     37208     37210     37209     37211     37213     37212     37214
     37216     37215     37217     37219     37218     37220     37222     37221     37223
     37225     37224     37226     37228     37227     37229     37231     37230     37232
     37234     37233     37235     37237     37236     37238     37240     37239     37241
     37243     37242     37244     37246     37245     37247     37249     37248     37250
     37252     37251     37253     37255     37254     37256     37258     37257     37259
     37261     37260     37262     37264     37263     37265     37267     37266     37268
     37270     37269     37271     37273     37272     37274     37276     37275     37277
     37279     37278     37280     37282     37281     37283     37285     37284     37286
     37288     37287     37289     37291     37290     37292     37294     37293     37295
     37297     37296     37298     37300     37299     37301     37303     37302     37304
     37306     37305     37307     37309     37308     37310     37312     37311     37313
     37315     37314     37316     37318     37317     37319     37321     37320     37322
     37324     37323     37325     37327     37326     37328     37330     37329     37331
     37333     37332     37334     37336     37335     37337     37339     37338     37340
     37342     37341     37343     37345     37344     37346     37348     37347     37349
     37351     37350     37352     37354     37353     37355     37357     37356     37358
     37360     37359     37361     37363     37362     37364     37366     37365     37367
     37369     37368     37370     37372     37371     37373     37375     37374     37376
     37378     37377     37379     37381     37380     37382     37384     37383     37385
     37387     37386     37388     37390     37389     37391     37393     37392     37394
     37396     37395     37397     37399     37398     37400     37402     37401     37403
     37405     37404     37406     37408     37407     37409     37411     37410     37412
     37414     37413     37415     37417     37416     37418     37420     37419     37421
     37423     37422     37424     37426     37425     37427     37429     37428     37430
     37432     37431     37433     37435     37434     37436     37438     37437     37439
     37441     37440     37442     37444     37443     37445     37447     37446     37448
     37450     37449     37451     37453     37452     37454     37456     37455     37457
     37459     37458     37460     37462     37461     37463     37465     37464     37466
     37468     37467     37469     37471     37470     37472     37474     37473     37475
     37477     37476     37478     37480     37479     37481     37483     37482     37484
     37486     37485     37487     37489     37488     37490     37492     37491     37493
     37495     37494     37496     37498     37497     37499     37501     37500     37502
     37504     37503     37505     37507     37506     37508     37510     37509     37511
     37513     37512     37514     37516     37515     37517     37519     37518     37520
     37522     37521     37523     37525     37524     37526     37528     37527     37529
     37531     37530     37532     37534     37533     37535     37537     37536     37538
     37540     37539     37541     37543     37542     37544     37546     37545     37547
     37549     37548     37550     37552     37551     37553     37555     37554     37556
     37558     37557     37559     37561     37560     37562     37564     37563     37565
     37567     37566     37568     37570     37569     37571     37573     37572     37574
     37576     37575     37577     37579     37578     37580     37582     37581     37583
     37585     37584     37586     37588     37587     37589     37591     37590     37592
     37594     37593     37595     37597     37596     37598     37600     37599     37601
     37603     37602     37604     37606     37605     37607     37609     37608     37610
     37612     37611     37613     37615     37614     37616     37618     37617     37619
     37621     37620     37622     37624     37623     37625     37627     37626     37628
     37630     37629     37631     37633     37632     37634     37636     37635     37637
     37639     37638     37640     37642     37641     37643     37645     37644     37646
     37648     37647     37649     37651     37650     37652     37654     37653     37655
     37657     37656     37658     37660     37659     37661     37663     37662     37664
     37666     37665     37667     37669     37668     37670     37672     37671     37673
     37675     37674     37676     37678     37677     37679     37681     37680     37682
     37684     37683     37685     37687     37686     37688     37690     37689     37691
     37693     37692     37694     37696     37695     37697     37699     37698     37700
     37702     37701     37703     37705     37704     37706     37708     37707     37709
     37711     37710     37712     37714     37713     37715     37717     37716     37718
     37720     37719     37721     37723     37722     37724     37726     37725     37727
     37729     37728     37730     37732     37731     37733     37735     37734     37736
     37738     37737     37739     37741     37740     37742     37744     37743     37745
     37747     37746     37748     37750     37749     37751     37753     37752     37754
     37756     37755     37757     37759     37758     37760     37762     37761     37763
     37765     37764     37766     37768     37767     37769     37771     37770     37772
     37774     37773     37775     37777     37776     37778     37780     37779     37781
     37783     37782     37784     37786     37785     37787     37789     37788     37790
     37792     37791     37793     37795     37794     37796     37798     37797     37799
     37801     37800     37802     37804     37803     37805     37807     37806     37808
     37810     37809     37811     37813     37812     37814     37816     37815     37817
     37819     37818     37820     37822     37821     37823     37825     37824     37826
     37828     37827     37829     37831     37830     37832     37834     37833     37835
     37837     37836     37838     37840     37839     37841     37843     37842     37844
     37846     37845     37847     37849     37848     37850     37852     37851     37853
     37855     37854     37856     37858     37857     37859     37861     37860     37862
     37864     37863     37865     37867     37866     37868     37870     37869     37871
     37873     37872     37874     37876     37875     37877     37879     37878     37880
     37882     37881     37883     37885     37884     37886     37888     37887     37889
     37891     37890     37892     37894     37893     37895     37897     37896     37898
     37900     37899     37901     37903     37902     37904     37906     37905     37907
     37909     37908     37910     37912     37911     37913     37915     37914     37916
     37918     37917     37919     37921     37920     37922     37924     37923     37925
     37927     37926     37928     37930     37929     37931     37933     37932     37934
     37936     37935     37937     37939     37938     37940     37942     37941     37943
     37945     37944     37946     37948     37947     37949     37951     37950     37952
     37954     37953     37955     37957     37956     37958     37960     37959     37961
     37963     37962     37964     37966     37965     37967     37969     37968     37970
     37972     37971     37973     37975     37974     37976     37978     37977     37979
     37981     37980     37982     37984     37983     37985     37987     37986     37988
     37990     37989     37991     37993     37992     37994     37996     37995     37997
     37999     37998     38000     38002     38001     38003     38005     38004     38006
     38008     38007     38009     38011     38010     38012     38014     38013     38015
     38017     38016     38018     38020     38019     38021     38023     38022     38024
     38026     38025     38027     38029     38028     38030     38032     38031     38033
     38035     38034     38036     38038     38037     38039     38041     38040     38042
     38044     38043     38045     38047     38046     38048     38050     38049     38051
     38053     38052     38054     38056     38055     38057     38059     38058     38060
     38062     38061     38063     38065     38064     38066     38068     38067     38069
     38071     38070     38072     38074     38073     38075     38077     38076     38078
     38080     38079     38081     38083     38082     38084     38086     38085     38087
     38089     38088     38090     38092     38091     38093     38095     38094     38096
     38098     38097     38099     38101     38100     38102     38104     38103     38105
     38107     38106     38108     38110     38109     38111     38113     38112     38114
     38116     38115     38117     38119     38118     38120     38122     38121     38123
     38125     38124     38126     38128     38127     38129     38131     38130     38132
     38134     38133     38135     38137     38136     38138     38140     38139     38141
     38143     38142     38144     38146     38145     38147     38149     38148     38150
     38152     38151     38153     38155     38154     38156     38158     38157     38159
     38161     38160     38162     38164     38163     38165     38167     38166     38168
     38170     38169     38171     38173     38172     38174     38176     38175     38177
     38179     38178     38180     38182     38181     38183     38185     38184     38186
     38188     38187     38189     38191     38190     38192     38194     38193     38195
     38197     38196     38198     38200     38199     38201     38203     38202     38204
     38206     38205     38207     38209     38208     38210     38212     38211     38213
     38215     38214     38216     38218     38217     38219     38221     38220     38222
     38224     38223     38225     38227     38226     38228     38230     38229     38231
     38233     38232     38234     38236     38235     38237     38239     38238     38240
     38242     38241     38243     38245     38244     38246     38248     38247     38249
     38251     38250     38252     38254     38253     38255     38257     38256     38258
     38260     38259     38261     38263     38262     38264     38266     38265     38267
     38269     38268     38270     38272     38271     38273     38275     38274     38276
     38278     38277     38279     38281     38280     38282     38284     38283     38285
     38287     38286     38288     38290     38289     38291     38293     38292     38294
     38296     38295     38297     38299     38298     38300     38302     38301     38303
     38305     38304     38306     38308     38307     38309     38311     38310     38312
     38314     38313     38315     38317     38316     38318     38320     38319     38321
     38323     38322     38324     38326     38325     38327     38329     38328     38330
     38332     38331     38333     38335     38334     38336     38338     38337     38339
     38341     38340     38342     38344     38343     38345     38347     38346     38348
     38350     38349     38351     38353     38352     38354     38356     38355     38357
     38359     38358     38360     38362     38361     38363     38365     38364     38366
     38368     38367     38369     38371     38370     38372     38374     38373     38375
     38377     38376     38378     38380     38379     38381     38383     38382     38384
     38386     38385     38387     38389     38388     38390     38392     38391     38393
     38395     38394     38396     38398     38397     38399     38401     38400     38402
     38404     38403     38405     38407     38406     38408     38410     38409     38411
     38413     38412     38414     38416     38415     38417     38419     38418     38420
     38422     38421     38423     38425     38424     38426     38428     38427     38429
     38431     38430     38432     38434     38433     38435     38437     38436     38438
     38440     38439     38441     38443     38442     38444     38446     38445     38447
     38449     38448     38450     38452     38451     38453     38455     38454     38456
     38458     38457     38459     38461     38460     38462     38464     38463     38465
     38467     38466     38468     38470     38469     38471     38473     38472     38474
     38476     38475     38477     38479     38478     38480     38482     38481     38483
     38485     38484     38486     38488     38487     38489     38491     38490     38492
     38494     38493     38495     38497     38496     38498     38500     38499     38501
     38503     38502     38504     38506     38505     38507     38509     38508     38510
     38512     38511     38513     38515     38514     38516     38518     38517     38519
     38521     38520     38522     38524     38523     38525     38527     38526     38528
     38530     38529     38531     38533     38532     38534     38536     38535     38537
     38539     38538     38540     38542     38541     38543     38545     38544     38546
     38548     38547     38549     38551     38550     38552     38554     38553     38555
     38557     38556     38558     38560     38559     38561     38563     38562     38564
     38566     38565     38567     38569     38568     38570     38572     38571     38573
     38575     38574     38576     38578     38577     38579     38581     38580     38582
     38584     38583     38585     38587     38586     38588     38590     38589     38591
     38593     38592     38594     38596     38595     38597     38599     38598     38600
     38602     38601     38603     38605     38604     38606     38608     38607     38609
     38611     38610     38612     38614     38613     38615     38617     38616     38618
     38620     38619     38621     38623     38622     38624     38626     38625     38627
     38629     38628     38630     38632     38631     38633     38635     38634     38636
     38638     38637     38639     38641     38640     38642     38644     38643     38645
     38647     38646     38648     38650     38649     38651     38653     38652     38654
     38656     38655     38657     38659     38658     38660     38662     38661     38663
     38665     38664     38666     38668     38667     38669     38671     38670     38672
     38674     38673     38675     38677     38676     38678     38680     38679     38681
     38683     38682     38684     38686     38685     38687     38689     38688     38690
     38692     38691     38693     38695     38694     38696     38698     38697     38699
     38701     38700     38702     38704     38703     38705     38707     38706     38708
     38710     38709     38711     38713     38712     38714     38716     38715     38717
     38719     38718     38720     38722     38721     38723     38725     38724     38726
     38728     38727     38729     38731     38730     38732     38734     38733     38735
     38737     38736     38738     38740     38739     38741     38743     38742     38744
     38746     38745     38747     38749     38748     38750     38752     38751     38753
     38755     38754     38756     38758     38757     38759     38761     38760     38762
     38764     38763     38765     38767     38766     38768     38770     38769     38771
     38773     38772     38774     38776     38775     38777     38779     38778     38780
     38782     38781     38783     38785     38784     38786     38788     38787     38789
     38791     38790     38792     38794     38793     38795     38797     38796     38798
     38800     38799     38801     38803     38802     38804     38806     38805     38807
     38809     38808     38810     38812     38811     38813     38815     38814     38816
     38818     38817     38819     38821     38820     38822     38824     38823     38825
     38827     38826     38828     38830     38829     38831     38833     38832     38834
     38836     38835     38837     38839     38838     38840     38842     38841     38843
     38845     38844     38846     38848     38847     38849     38851     38850     38852
     38854     38853     38855     38857     38856     38858     38860     38859     38861
     38863     38862     38864     38866     38865     38867     38869     38868     38870
     38872     38871     38873     38875     38874     38876     38878     38877     38879
     38881     38880     38882     38884     38883     38885     38887     38886     38888
     38890     38889     38891     38893     38892     38894     38896     38895     38897
     38899     38898     38900     38902     38901     38903     38905     38904     38906
     38908     38907     38909     38911     38910     38912     38914     38913     38915
     38917     38916     38918     38920     38919     38921     38923     38922     38924
     38926     38925     38927     38929     38928     38930     38932     38931     38933
     38935     38934     38936     38938     38937     38939     38941     38940     38942
     38944     38943     38945     38947     38946     38948     38950     38949     38951
     38953     38952     38954     38956     38955     38957     38959     38958     38960
     38962     38961     38963     38965     38964     38966     38968     38967     38969
     38971     38970     38972     38974     38973     38975     38977     38976     38978
     38980     38979     38981     38983     38982     38984     38986     38985     38987
     38989     38988     38990     38992     38991     38993     38995     38994     38996
     38998     38997     38999     39001     39000     39002     39004     39003     39005
     39007     39006     39008     39010     39009     39011     39013     39012     39014
     39016     39015     39017     39019     39018     39020     39022     39021     39023
     39025     39024     39026     39028     39027     39029     39031     39030     39032
     39034     39033     39035     39037     39036     39038     39040     39039     39041
     39043     39042     39044     39046     39045     39047     39049     39048     39050
     39052     39051     39053     39055     39054     39056     39058     39057     39059
     39061     39060     39062     39064     39063     39065     39067     39066     39068
     39070     39069     39071     39073     39072     39074     39076     39075     39077
     39079     39078     39080     39082     39081     39083     39085     39084     39086
     39088     39087     39089     39091     39090     39092     39094     39093     39095
     39097     39096     39098     39100     39099     39101     39103     39102     39104
     39106     39105     39107     39109     39108     39110     39112     39111     39113
     39115     39114     39116     39118     39117     39119     39121     39120     39122
     39124     39123     39125     39127     39126     39128     39130     39129     39131
     39133     39132     39134     39136     39135     39137     39139     39138     39140
     39142     39141     39143     39145     39144     39146     39148     39147     39149
     39151     39150     39152     39154     39153     39155     39157     39156     39158
     39160     39159     39161     39163     39162     39164     39166     39165     39167
     39169     39168     39170     39172     39171     39173     39175     39174     39176
     39178     39177     39179     39181     39180     39182     39184     39183     39185
     39187     39186     39188     39190     39189     39191     39193     39192     39194
     39196     39195     39197     39199     39198     39200     39202     39201     39203
     39205     39204     39206     39208     39207     39209     39211     39210     39212
     39214     39213     39215     39217     39216     39218     39220     39219     39221
     39223     39222     39224     39226     39225     39227     39229     39228     39230
     39232     39231     39233     39235     39234     39236     39238     39237     39239
     39241     39240     39242     39244     39243     39245     39247     39246     39248
     39250     39249     39251     39253     39252     39254     39256     39255     39257
     39259     39258     39260     39262     39261     39263     39265     39264     39266
     39268     39267     39269     39271     39270     39272     39274     39273     39275
     39277     39276     39278     39280     39279     39281     39283     39282     39284
     39286     39285     39287     39289     39288     39290     39292     39291     39293
     39295     39294     39296     39298     39297     39299     39301     39300     39302
     39304     39303     39305     39307     39306     39308     39310     39309     39311
     39313     39312     39314     39316     39315     39317     39319     39318     39320
     39322     39321     39323     39325     39324     39326     39328     39327     39329
     39331     39330     39332     39334     39333     39335     39337     39336     39338
     39340     39339     39341     39343     39342     39344     39346     39345     39347
     39349     39348     39350     39352     39351     39353     39355     39354     39356
     39358     39357     39359     39361     39360     39362     39364     39363     39365
     39367     39366     39368     39370     39369     39371     39373     39372     39374
     39376     39375     39377     39379     39378     39380     39382     39381     39383
     39385     39384     39386     39388     39387     39389     39391     39390     39392
     39394     39393     39395     39397     39396     39398     39400     39399     39401
     39403     39402     39404     39406     39405     39407     39409     39408     39410
     39412     39411     39413     39415     39414     39416     39418     39417     39419
     39421     39420     39422     39424     39423     39425     39427     39426     39428
     39430     39429     39431     39433     39432     39434     39436     39435     39437
     39439     39438     39440     39442     39441     39443     39445     39444     39446
     39448     39447     39449     39451     39450     39452     39454     39453     39455
     39457     39456     39458     39460     39459     39461     39463     39462     39464
     39466     39465     39467     39469     39468     39470     39472     39471     39473
     39475     39474     39476     39478     39477     39479     39481     39480     39482
     39484     39483     39485     39487     39486     39488     39490     39489     39491
     39493     39492     39494     39496     39495     39497     39499     39498     39500
     39502     39501     39503     39505     39504     39506     39508     39507     39509
     39511     39510     39512     39514     39513     39515     39517     39516     39518
     39520     39519     39521     39523     39522     39524     39526     39525     39527
     39529     39528     39530     39532     39531     39533     39535     39534     39536
     39538     39537     39539     39541     39540     39542     39544     39543     39545
     39547     39546     39548     39550     39549     39551     39553     39552     39554
     39556     39555     39557     39559     39558     39560     39562     39561     39563
     39565     39564     39566     39568     39567     39569     39571     39570     39572
     39574     39573     39575     39577     39576     39578     39580     39579     39581
     39583     39582     39584     39586     39585     39587     39589     39588     39590
     39592     39591     39593     39595     39594     39596     39598     39597     39599
     39601     39600     39602     39604     39603     39605     39607     39606     39608
     39610     39609     39611     39613     39612     39614     39616     39615     39617
     39619     39618     39620     39622     39621     39623     39625     39624     39626
     39628     39627     39629     39631     39630     39632     39634     39633     39635
     39637     39636     39638     39640     39639     39641     39643     39642     39644
     39646     39645     39647     39649     39648     39650     39652     39651     39653
     39655     39654     39656     39658     39657     39659     39661     39660     39662
     39664     39663     39665     39667     39666     39668     39670     39669     39671
     39673     39672     39674     39676     39675     39677     39679     39678     39680
     39682     39681     39683     39685     39684     39686     39688     39687     39689
     39691     39690     39692     39694     39693     39695     39697     39696     39698
     39700     39699     39701     39703     39702     39704     39706     39705     39707
     39709     39708     39710     39712     39711     39713     39715     39714     39716
     39718     39717     39719     39721     39720     39722     39724     39723     39725
     39727     39726     39728     39730     39729     39731     39733     39732     39734
     39736     39735     39737     39739     39738     39740     39742     39741     39743
     39745     39744     39746     39748     39747     39749     39751     39750     39752
     39754     39753     39755     39757     39756     39758     39760     39759     39761
     39763     39762     39764     39766     39765     39767     39769     39768     39770
     39772     39771     39773     39775     39774     39776     39778     39777     39779
     39781     39780     39782     39784     39783     39785     39787     39786     39788
     39790     39789     39791     39793     39792     39794     39796     39795     39797
     39799     39798     39800     39802     39801     39803     39805     39804     39806
     39808     39807     39809     39811     39810     39812     39814     39813     39815
     39817     39816     39818     39820     39819     39821     39823     39822     39824
     39826     39825     39827     39829     39828     39830     39832     39831     39833
     39835     39834     39836     39838     39837     39839     39841     39840     39842
     39844     39843     39845     39847     39846     39848     39850     39849     39851
     39853     39852     39854     39856     39855     39857     39859     39858     39860
     39862     39861     39863     39865     39864     39866     39868     39867     39869
     39871     39870     39872     39874     39873     39875     39877     39876     39878
     39880     39879     39881     39883     39882     39884     39886     39885     39887
     39889     39888     39890     39892     39891     39893     39895     39894     39896
     39898     39897     39899     39901     39900     39902     39904     39903     39905
     39907     39906     39908     39910     39909     39911     39913     39912     39914
     39916     39915     39917     39919     39918     39920     39922     39921     39923
     39925     39924     39926     39928     39927     39929     39931     39930     39932
     39934     39933     39935     39937     39936     39938     39940     39939     39941
     39943     39942     39944     39946     39945     39947     39949     39948     39950
     39952     39951     39953     39955     39954     39956     39958     39957     39959
     39961     39960     39962     39964     39963     39965     39967     39966     39968
     39970     39969     39971     39973     39972     39974     39976     39975     39977
     39979     39978     39980     39982     39981     39983     39985     39984     39986
     39988     39987     39989     39991     39990     39992     39994     39993     39995
     39997     39996     39998     40000     39999     40001     40003     40002     40004
     40006     40005     40007     40009     40008     40010     40012     40011     40013
     40015     40014     40016     40018     40017     40019     40021     40020     40022
     40024     40023     40025     40027     40026     40028     40030     40029     40031
     40033     40032     40034     40036     40035     40037     40039     40038     40040
     40042     40041     40043     40045     40044     40046     40048     40047     40049
     40051     40050     40052     40054     40053     40055     40057     40056     40058
     40060     40059     40061     40063     40062     40064     40066     40065     40067
     40069     40068     40070     40072     40071     40073     40075     40074     40076
     40078     40077     40079     40081     40080     40082     40084     40083     40085
     40087     40086     40088     40090     40089     40091     40093     40092     40094
     40096     40095     40097     40099     40098     40100     40102     40101     40103
     40105     40104     40106     40108     40107     40109     40111     40110     40112
     40114     40113     40115     40117     40116     40118     40120     40119     40121
     40123     40122     40124     40126     40125     40127     40129     40128     40130
     40132     40131     40133     40135     40134     40136     40138     40137     40139
     40141     40140     40142     40144     40143     40145     40147     40146     40148
     40150     40149     40151     40153     40152     40154     40156     40155     40157
     40159     40158     40160     40162     40161     40163     40165     40164     40166
     40168     40167     40169     40171     40170     40172     40174     40173     40175
     40177     40176     40178     40180     40179     40181     40183     40182     40184
     40186     40185     40187     40189     40188     40190     40192     40191     40193
     40195     40194     40196     40198     40197     40199     40201     40200     40202
     40204     40203     40205     40207     40206     40208     40210     40209     40211
     40213     40212     40214     40216     40215     40217     40219     40218     40220
     40222     40221     40223     40225     40224     40226     40228     40227     40229
     40231     40230     40232     40234     40233     40235     40237     40236     40238
     40240     40239     40241     40243     40242     40244     40246     40245     40247
     40249     40248     40250     40252     40251     40253     40255     40254     40256
     40258     40257     40259     40261     40260     40262     40264     40263     40265
     40267     40266     40268     40270     40269     40271     40273     40272     40274
     40276     40275     40277     40279     40278     40280     40282     40281     40283
     40285     40284     40286     40288     40287     40289     40291     40290     40292
     40294     40293     40295     40297     40296     40298     40300     40299     40301
     40303     40302     40304     40306     40305     40307     40309     40308     40310
     40312     40311     40313     40315     40314     40316     40318     40317     40319
     40321     40320     40322     40324     40323     40325     40327     40326     40328
     40330     40329     40331     40333     40332     40334     40336     40335     40337
     40339     40338     40340     40342     40341     40343     40345     40344     40346
     40348     40347     40349     40351     40350     40352     40354     40353     40355
     40357     40356     40358     40360     40359     40361     40363     40362     40364
     40366     40365     40367     40369     40368     40370     40372     40371     40373
     40375     40374     40376     40378     40377     40379     40381     40380     40382
     40384     40383     40385     40387     40386     40388     40390     40389     40391
     40393     40392     40394     40396     40395     40397     40399     40398     40400
     40402     40401     40403     40405     40404     40406     40408     40407     40409
     40411     40410     40412     40414     40413     40415     40417     40416     40418
     40420     40419     40421     40423     40422     40424     40426     40425     40427
     40429     40428     40430     40432     40431     40433     40435     40434     40436
     40438     40437     40439     40441     40440     40442     40444     40443     40445
     40447     40446     40448     40450     40449     40451     40453     40452     40454
     40456     40455     40457     40459     40458     40460     40462     40461     40463
     40465     40464     40466     40468     40467     40469     40471     40470     40472
     40474     40473     40475     40477     40476     40478     40480     40479     40481
     40483     40482     40484     40486     40485     40487     40489     40488     40490
     40492     40491     40493     40495     40494     40496     40498     40497     40499
     40501     40500     40502     40504     40503     40505     40507     40506     40508
     40510     40509     40511     40513     40512     40514     40516     40515     40517
     40519     40518     40520     40522     40521     40523     40525     40524     40526
     40528     40527     40529     40531     40530     40532     40534     40533     40535
     40537     40536     40538     40540     40539     40541     40543     40542     40544
     40546     40545     40547     40549     40548     40550     40552     40551     40553
     40555     40554     40556     40558     40557     40559     40561     40560     40562
     40564     40563     40565     40567     40566     40568     40570     40569     40571
     40573     40572     40574     40576     40575     40577     40579     40578     40580
     40582     40581     40583     40585     40584     40586     40588     40587     40589
     40591     40590     40592     40594     40593     40595     40597     40596     40598
     40600     40599     40601     40603     40602     40604     40606     40605     40607
     40609     40608     40610     40612     40611     40613     40615     40614     40616
     40618     40617     40619     40621     40620     40622     40624     40623     40625
     40627     40626     40628     40630     40629     40631     40633     40632     40634
     40636     40635     40637     40639     40638     40640     40642     40641     40643
     40645     40644     40646     40648     40647     40649     40651     40650     40652
     40654     40653     40655     40657     40656     40658     40660     40659     40661
     40663     40662     40664     40666     40665     40667     40669     40668     40670
     40672     40671     40673     40675     40674     40676     40678     40677     40679
     40681     40680     40682     40684     40683     40685     40687     40686     40688
     40690     40689     40691     40693     40692     40694     40696     40695     40697
     40699     40698     40700     40702     40701     40703     40705     40704     40706
     40708     40707     40709     40711     40710     40712     40714     40713     40715
     40717     40716     40718     40720     40719     40721     40723     40722     40724
     40726     40725     40727     40729     40728     40730     40732     40731     40733
     40735     40734     40736     40738     40737     40739     40741     40740     40742
     40744     40743     40745     40747     40746     40748     40750     40749     40751
     40753     40752     40754     40756     40755     40757     40759     40758     40760
     40762     40761     40763     40765     40764     40766     40768     40767     40769
     40771     40770     40772     40774     40773     40775     40777     40776     40778
     40780     40779     40781     40783     40782     40784     40786     40785     40787
     40789     40788     40790     40792     40791     40793     40795     40794     40796
     40798     40797     40799     40801     40800     40802     40804     40803     40805
     40807     40806     40808     40810     40809     40811     40813     40812     40814
     40816     40815     40817     40819     40818     40820     40822     40821     40823
     40825     40824     40826     40828     40827     40829     40831     40830     40832
     40834     40833     40835     40837     40836     40838     40840     40839     40841
     40843     40842     40844     40846     40845     40847     40849     40848     40850
     40852     40851     40853     40855     40854     40856     40858     40857     40859
     40861     40860     40862     40864     40863     40865     40867     40866     40868
     40870     40869     40871     40873     40872     40874     40876     40875     40877
     40879     40878     40880     40882     40881     40883     40885     40884     40886
     40888     40887     40889     40891     40890     40892     40894     40893     40895
     40897     40896     40898     40900     40899     40901     40903     40902     40904
     40906     40905     40907     40909     40908     40910     40912     40911     40913
     40915     40914     40916     40918     40917     40919     40921     40920     40922
     40924     40923     40925     40927     40926     40928     40930     40929     40931
     40933     40932     40934     40936     40935     40937     40939     40938     40940
     40942     40941     40943     40945     40944     40946     40948     40947     40949
     40951     40950     40952     40954     40953     40955     40957     40956     40958
     40960     40959     40961     40963     40962     40964     40966     40965     40967
     40969     40968     40970     40972     40971     40973     40975     40974     40976
     40978     40977     40979     40981     40980     40982     40984     40983     40985
     40987     40986     40988     40990     40989     40991     40993     40992     40994
     40996     40995     40997     40999     40998     41000     41002     41001     41003
     41005     41004     41006     41008     41007     41009     41011     41010     41012
     41014     41013     41015     41017     41016     41018     41020     41019     41021
     41023     41022     41024     41026     41025     41027     41029     41028     41030
     41032     41031     41033     41035     41034     41036     41038     41037     41039
     41041     41040     41042     41044     41043     41045     41047     41046     41048
     41050     41049     41051     41053     41052     41054     41056     41055     41057
     41059     41058     41060     41062     41061     41063     41065     41064     41066
     41068     41067     41069     41071     41070     41072     41074     41073     41075
     41077     41076     41078     41080     41079     41081     41083     41082     41084
     41086     41085     41087     41089     41088     41090     41092     41091     41093
     41095     41094     41096     41098     41097     41099     41101     41100     41102
     41104     41103     41105     41107     41106     41108     41110     41109     41111
     41113     41112     41114     41116     41115     41117     41119     41118     41120
     41122     41121     41123     41125     41124     41126     41128     41127     41129
     41131     41130     41132     41134     41133     41135     41137     41136     41138
     41140     41139     41141     41143     41142     41144     41146     41145     41147
     41149     41148     41150     41152     41151     41153     41155     41154     41156
     41158     41157     41159     41161     41160     41162     41164     41163     41165
     41167     41166     41168     41170     41169     41171     41173     41172     41174
     41176     41175     41177     41179     41178     41180     41182     41181     41183
     41185     41184     41186     41188     41187     41189     41191     41190     41192
     41194     41193     41195     41197     41196     41198     41200     41199     41201
     41203     41202     41204     41206     41205     41207     41209     41208     41210
     41212     41211     41213     41215     41214     41216     41218     41217     41219
     41221     41220     41222     41224     41223     41225     41227     41226     41228
     41230     41229     41231     41233     41232     41234     41236     41235     41237
     41239     41238     41240     41242     41241     41243     41245     41244     41246
     41248     41247     41249     41251     41250     41252     41254     41253     41255
     41257     41256     41258     41260     41259     41261     41263     41262     41264
     41266     41265     41267     41269     41268     41270     41272     41271     41273
     41275     41274     41276     41278     41277     41279     41281     41280     41282
     41284     41283     41285     41287     41286     41288     41290     41289     41291
     41293     41292     41294     41296     41295     41297     41299     41298     41300
     41302     41301     41303     41305     41304     41306     41308     41307     41309
     41311     41310     41312     41314     41313     41315     41317     41316     41318
     41320     41319     41321     41323     41322     41324     41326     41325     41327
     41329     41328     41330     41332     41331     41333     41335     41334     41336
     41338     41337     41339     41341     41340     41342     41344     41343     41345
     41347     41346     41348     41350     41349     41351     41353     41352     41354
     41356     41355     41357     41359     41358     41360     41362     41361     41363
     41365     41364     41366     41368     41367     41369     41371     41370     41372
     41374     41373     41375     41377     41376     41378     41380     41379     41381
     41383     41382     41384     41386     41385     41387     41389     41388     41390
     41392     41391     41393     41395     41394     41396     41398     41397     41399
     41401     41400     41402     41404     41403     41405     41407     41406     41408
     41410     41409     41411     41413     41412     41414     41416     41415     41417
     41419     41418     41420     41422     41421     41423     41425     41424     41426
     41428     41427     41429     41431     41430     41432     41434     41433     41435
     41437     41436     41438     41440     41439     41441     41443     41442     41444
     41446     41445     41447     41449     41448     41450     41452     41451     41453
     41455     41454     41456     41458     41457     41459     41461     41460     41462
     41464     41463     41465     41467     41466     41468     41470     41469     41471
     41473     41472     41474     41476     41475     41477     41479     41478     41480
     41482     41481     41483     41485     41484     41486     41488     41487     41489
     41491     41490     41492     41494     41493     41495     41497     41496     41498
     41500     41499     41501     41503     41502     41504     41506     41505     41507
     41509     41508     41510     41512     41511     41513     41515     41514     41516
     41518     41517     41519     41521     41520     41522     41524     41523     41525
     41527     41526     41528     41530     41529     41531     41533     41532     41534
     41536     41535     41537     41539     41538     41540     41542     41541     41543
     41545     41544     41546     41548     41547     41549     41551     41550     41552
     41554     41553     41555     41557     41556     41558     41560     41559     41561
     41563     41562     41564     41566     41565     41567     41569     41568     41570
     41572     41571     41573     41575     41574     41576     41578     41577     41579
     41581     41580     41582     41584     41583     41585     41587     41586     41588
     41590     41589     41591     41593     41592     41594     41596     41595     41597
     41599     41598     41600     41602     41601     41603     41605     41604     41606
     41608     41607     41609     41611     41610     41612     41614     41613     41615
     41617     41616     41618     41620     41619     41621     41623     41622     41624
     41626     41625     41627     41629     41628     41630     41632     41631     41633
     41635     41634     41636     41638     41637     41639     41641     41640     41642
     41644     41643     41645     41647     41646     41648     41650     41649     41651
     41653     41652     41654     41656     41655     41657     41659     41658     41660
     41662     41661     41663     41665     41664     41666     41668     41667     41669
     41671     41670     41672     41674     41673     41675     41677     41676     41678
     41680     41679     41681     41683     41682     41684     41686     41685     41687
     41689     41688     41690     41692     41691     41693     41695     41694     41696
     41698     41697     41699     41701     41700     41702     41704     41703     41705
     41707     41706     41708     41710     41709     41711     41713     41712     41714
     41716     41715     41717     41719     41718     41720     41722     41721     41723
     41725     41724     41726     41728     41727     41729     41731     41730     41732
     41734     41733     41735     41737     41736     41738     41740     41739     41741
     41743     41742     41744     41746     41745     41747     41749     41748     41750
     41752     41751     41753     41755     41754     41756     41758     41757     41759
     41761     41760     41762     41764     41763     41765     41767     41766     41768
     41770     41769     41771     41773     41772     41774     41776     41775     41777
     41779     41778     41780     41782     41781     41783     41785     41784     41786
     41788     41787     41789     41791     41790     41792     41794     41793     41795
     41797     41796     41798     41800     41799     41801     41803     41802     41804
     41806     41805     41807     41809     41808     41810     41812     41811     41813
     41815     41814     41816     41818     41817     41819     41821     41820     41822
     41824     41823     41825     41827     41826     41828     41830     41829     41831
     41833     41832     41834     41836     41835     41837     41839     41838     41840
     41842     41841     41843     41845     41844     41846     41848     41847     41849
     41851     41850     41852     41854     41853     41855     41857     41856     41858
     41860     41859     41861     41863     41862     41864     41866     41865     41867
     41869     41868     41870     41872     41871     41873     41875     41874     41876
     41878     41877     41879     41881     41880     41882     41884     41883     41885
     41887     41886     41888     41890     41889     41891     41893     41892     41894
     41896     41895     41897     41899     41898     41900     41902     41901     41903
     41905     41904     41906     41908     41907     41909     41911     41910     41912
     41914     41913     41915     41917     41916     41918     41920     41919     41921
     41923     41922     41924     41926     41925     41927     41929     41928     41930
     41932     41931     41933     41935     41934     41936     41938     41937     41939
     41941     41940     41942     41944     41943     41945     41947     41946     41948
     41950     41949     41951     41953     41952     41954     41956     41955     41957
     41959     41958     41960     41962     41961     41963     41965     41964     41966
     41968     41967     41969     41971     41970     41972     41974     41973     41975
     41977     41976     41978     41980     41979     41981     41983     41982     41984
     41986     41985     41987     41989     41988     41990     41992     41991     41993
     41995     41994     41996     41998     41997     41999     42001     42000     42002
     42004     42003     42005     42007     42006     42008     42010     42009     42011
     42013     42012     42014     42016     42015     42017     42019     42018     42020
     42022     42021     42023     42025     42024     42026     42028     42027     42029
     42031     42030     42032     42034     42033     42035     42037     42036     42038
     42040     42039     42041     42043     42042     42044     42046     42045     42047
     42049     42048     42050     42052     42051     42053     42055     42054     42056
     42058     42057     42059     42061     42060     42062     42064     42063     42065
     42067     42066     42068     42070     42069     42071     42073     42072     42074
     42076     42075     42077     42079     42078     42080     42082     42081     42083
     42085     42084     42086     42088     42087     42089     42091     42090     42092
     42094     42093     42095     42097     42096     42098     42100     42099     42101
     42103     42102     42104     42106     42105     42107     42109     42108     42110
     42112     42111     42113     42115     42114     42116     42118     42117     42119
     42121     42120     42122     42124     42123     42125     42127     42126     42128
     42130     42129     42131     42133     42132     42134     42136     42135     42137
     42139     42138     42140     42142     42141     42143     42145     42144     42146
     42148     42147     42149     42151     42150     42152     42154     42153     42155
     42157     42156     42158     42160     42159     42161     42163     42162     42164
     42166     42165     42167     42169     42168     42170     42172     42171     42173
     42175     42174     42176     42178     42177     42179     42181     42180     42182
     42184     42183     42185     42187     42186     42188     42190     42189     42191
     42193     42192     42194     42196     42195     42197     42199     42198     42200
     42202     42201     42203     42205     42204     42206     42208     42207     42209
     42211     42210     42212     42214     42213     42215     42217     42216     42218
     42220     42219     42221     42223     42222     42224     42226     42225     42227
     42229     42228     42230     42232     42231     42233     42235     42234     42236
     42238     42237     42239     42241     42240     42242     42244     42243     42245
     42247     42246     42248     42250     42249     42251     42253     42252     42254
     42256     42255     42257     42259     42258     42260     42262     42261     42263
     42265     42264     42266     42268     42267     42269     42271     42270     42272
     42274     42273     42275     42277     42276     42278     42280     42279     42281
     42283     42282     42284     42286     42285     42287     42289     42288     42290
     42292     42291     42293     42295     42294     42296     42298     42297     42299
     42301     42300     42302     42304     42303     42305     42307     42306     42308
     42310     42309     42311     42313     42312     42314     42316     42315     42317
     42319     42318     42320     42322     42321     42323     42325     42324     42326
     42328     42327     42329     42331     42330     42332     42334     42333     42335
     42337     42336     42338     42340     42339     42341     42343     42342     42344
     42346     42345     42347     42349     42348     42350     42352     42351     42353
     42355     42354     42356     42358     42357     42359     42361     42360     42362
     42364     42363     42365     42367     42366     42368     42370     42369     42371
     42373     42372     42374     42376     42375     42377     42379     42378     42380
     42382     42381     42383     42385     42384     42386     42388     42387     42389
     42391     42390     42392     42394     42393     42395     42397     42396     42398
     42400     42399     42401     42403     42402     42404     42406     42405     42407
     42409     42408     42410     42412     42411     42413     42415     42414     42416
     42418     42417     42419     42421     42420     42422     42424     42423     42425
     42427     42426     42428     42430     42429     42431     42433     42432     42434
     42436     42435     42437     42439     42438     42440     42442     42441     42443
     42445     42444     42446     42448     42447     42449     42451     42450     42452
     42454     42453     42455     42457     42456     42458     42460     42459     42461
     42463     42462     42464     42466     42465     42467     42469     42468     42470
     42472     42471     42473     42475     42474     42476     42478     42477     42479
     42481     42480     42482     42484     42483     42485     42487     42486     42488
     42490     42489     42491     42493     42492     42494     42496     42495     42497
     42499     42498     42500     42502     42501     42503     42505     42504     42506
     42508     42507     42509     42511     42510     42512     42514     42513     42515
     42517     42516     42518     42520     42519     42521     42523     42522     42524
     42526     42525     42527     42529     42528     42530     42532     42531     42533
     42535     42534     42536     42538     42537     42539     42541     42540     42542
     42544     42543     42545     42547     42546     42548     42550     42549     42551
     42553     42552     42554     42556     42555     42557     42559     42558     42560
     42562     42561     42563     42565     42564     42566     42568     42567     42569
     42571     42570     42572     42574     42573     42575     42577     42576     42578
     42580     42579     42581     42583     42582     42584     42586     42585     42587
     42589     42588     42590     42592     42591     42593     42595     42594     42596
     42598     42597     42599     42601     42600     42602     42604     42603     42605
     42607     42606     42608     42610     42609     42611     42613     42612     42614
     42616     42615     42617     42619     42618     42620     42622     42621     42623
     42625     42624     42626     42628     42627     42629     42631     42630     42632
     42634     42633     42635     42637     42636     42638     42640     42639     42641
     42643     42642     42644     42646     42645     42647     42649     42648     42650
     42652     42651     42653     42655     42654     42656     42658     42657     42659
     42661     42660     42662     42664     42663     42665     42667     42666     42668
     42670     42669     42671     42673     42672     42674     42676     42675     42677
     42679     42678     42680     42682     42681     42683     42685     42684     42686
     42688     42687     42689     42691     42690     42692     42694     42693     42695
     42697     42696     42698     42700     42699     42701     42703     42702     42704
     42706     42705     42707     42709     42708     42710     42712     42711     42713
     42715     42714     42716     42718     42717     42719     42721     42720     42722
     42724     42723     42725     42727     42726     42728     42730     42729     42731
     42733     42732     42734     42736     42735     42737     42739     42738     42740
     42742     42741     42743     42745     42744     42746     42748     42747     42749
     42751     42750     42752     42754     42753     42755     42757     42756     42758
     42760     42759     42761     42763     42762     42764     42766     42765     42767
     42769     42768     42770     42772     42771     42773     42775     42774     42776
     42778     42777     42779     42781     42780     42782     42784     42783     42785
     42787     42786     42788     42790     42789     42791     42793     42792     42794

     61788 !NPHI: dihedrals
         1         5         7         8         1         5         7         9
         1         5        10        11         1         5        10        12
         1         5        10        16         2         1         5         6
         2         1         5         7         2         1         5        10
         3         1         5         6         3         1         5         7
         3         1         5        10         4         1         5         6
         4         1         5         7         4         1         5        10
         5        10        16        13         6         5         7         8
         6         5         7         9         6         5        10        11
         6         5        10        12         6         5        10        16
         7         5        10        11         7         5        10        12
         7         5        10        16         8         7         5        10
         9         7         5        10        10        16        13        14
        10        16        13        15        10        16        13        17
        11        10        16        13        12        10        16        13
        13        17        18        19        13        17        18        20
        13        17        18        21        14        13        17        18
        15        13        17        18        16        13        17        18
        17        18        21        22        17        18        21        23
        17        18        21        29        18        21        23        24
        18        21        29        30        18        21        29        31
        18        21        29        32        19        18        21        22
        19        18        21        23        19        18        21        29
        20        18        21        22        20        18        21        23
        20        18        21        29        21        23        24        25
        21        23        24        26        21        29        32        33
        22        21        23        24        22        21        29        30
        22        21        29        31        22        21        29        32
        23        21        29        30        23        21        29        31
        23        21        29        32        23        24        26        27
        23        24        26        28        23        24        26        38
        24        23        21        29        24        26        38        39
        24        26        38        40        24        26        38        41
        25        24        26        27        25        24        26        28
        25        24        26        38        26        38        41        42
        26        38        41        43        26        38        41        44
        27        26        38        39        27        26        38        40
        27        26        38        41        28        26        38        39
        28        26        38        40        28        26        38        41
        29        32        33        34        29        32        33        35
        30        29        32        33        31        29        32        33
        32        33        35        36        32        33        35        37
        32        33        35        85        33        35        85        86
        33        35        85        87        33        35        85        88
        34        33        35        36        34        33        35        37
        34        33        35        85        35        85        88        89
        35        85        88        90        35        85        88        91
        36        35        85        86        36        35        85        87
        36        35        85        88        37        35        85        86
        37        35        85        87        37        35        85        88
        38        41        44        45        38        41        44        46
        39        38        41        42        39        38        41        43
        39        38        41        44        40        38        41        42
        40        38        41        43        40        38        41        44
        41        44        46        47        41        44        46        48
        42        41        44        45        42        41        44        46
        43        41        44        45        43        41        44        46
        44        46        48        49        44        46        48        50
        44        46        48        51        45        44        46        47
        45        44        46        48        46        48        51        52
        46        48        51        53        47        46        48        49
        47        46        48        50        47        46        48        51
        48        51        53        54        48        51        53        55
        49        48        51        52        49        48        51        53
        50        48        51        52        50        48        51        53
        51        53        55        56        51        53        55        57
        51        53        55        58        52        51        53        54
        52        51        53        55        53        55        58        59
        53        55        58        60        54        53        55        56
        54        53        55        57        54        53        55        58
        55        58        60        61        55        58        60        62
        56        55        58        59        56        55        58        60
        57        55        58        59        57        55        58        60
        58        60        62        63        58        60        62        64
        58        60        62        65        59        58        60        61
        59        58        60        62        60        62        65        66
        60        62        65        67        61        60        62        63
        61        60        62        64        61        60        62        65
        62        65        67        68        62        65        67        69
        63        62        65        66        63        62        65        67
        64        62        65        66        64        62        65        67
        65        67        69        70        65        67        69        71
        65        67        69        72        66        65        67        68
        66        65        67        69        67        69        72        73
        67        69        72        74        67        69        72        75
        68        67        69        70        68        67        69        71
        68        67        69        72        69        72        75        76
        69        72        75        77        69        72        75        78
        70        69        72        73        70        69        72        74
        70        69        72        75        71        69        72        73
        71        69        72        74        71        69        72        75
        72        75        78        79        72        75        78        80
        72        75        78        81        73        72        75        76
        73        72        75        77        73        72        75        78
        74        72        75        76        74        72        75        77
        74        72        75        78        75        78        81        82
        75        78        81        83        75        78        81        84
        76        75        78        79        76        75        78        80
        76        75        78        81        77        75        78        79
        77        75        78        80        77        75        78        81
        79        78        81        82        79        78        81        83
        79        78        81        84        80        78        81        82
        80        78        81        83        80        78        81        84
        85        88        91        92        85        88        91        93
        85        88        91        94        86        85        88        89
        86        85        88        90        86        85        88        91
        87        85        88        89        87        85        88        90
        87        85        88        91        88        91        94        95
        88        91        94        96        88        91        94        97
        89        88        91        92        89        88        91        93
        89        88        91        94        90        88        91        92
        90        88        91        93        90        88        91        94
        91        94        97        98        91        94        97        99
        91        94        97       100        92        91        94        95
        92        91        94        96        92        91        94        97
        93        91        94        95        93        91        94        96
        93        91        94        97        94        97       100       101
        94        97       100       102        94        97       100       103
        95        94        97        98        95        94        97        99
        95        94        97       100        96        94        97        98
        96        94        97        99        96        94        97       100
        97       100       103       104        97       100       103       105
        97       100       103       106        98        97       100       101
        98        97       100       102        98        97       100       103
        99        97       100       101        99        97       100       102
        99        97       100       103       100       103       106       107
       100       103       106       108       100       103       106       109
       101       100       103       104       101       100       103       105
       101       100       103       106       102       100       103       104
       102       100       103       105       102       100       103       106
       103       106       109       110       103       106       109       111
       103       106       109       112       104       103       106       107
       104       103       106       108       104       103       106       109
       105       103       106       107       105       103       106       108
       105       103       106       109       106       109       112       113
       106       109       112       114       106       109       112       115
       107       106       109       110       107       106       109       111
       107       106       109       112       108       106       109       110
       108       106       109       111       108       106       109       112
       109       112       115       116       109       112       115       117
       109       112       115       118       110       109       112       113
       110       109       112       114       110       109       112       115
       111       109       112       113       111       109       112       114
       111       109       112       115       112       115       118       119
       112       115       118       120       112       115       118       121
       113       112       115       116       113       112       115       117
       113       112       115       118       114       112       115       116
       114       112       115       117       114       112       115       118
       115       118       121       122       115       118       121       123
       115       118       121       124       116       115       118       119
       116       115       118       120       116       115       118       121
       117       115       118       119       117       115       118       120
       117       115       118       121       118       121       124       125
       118       121       124       126       118       121       124       127
       119       118       121       122       119       118       121       123
       119       118       121       124       120       118       121       122
       120       118       121       123       120       118       121       124
       121       124       127       128       121       124       127       129
       121       124       127       130       122       121       124       125
       122       121       124       126       122       121       124       127
       123       121       124       125       123       121       124       126
       123       121       124       127       124       127       130       131
       124       127       130       132       124       127       130       133
       125       124       127       128       125       124       127       129
       125       124       127       130       126       124       127       128
       126       124       127       129       126       124       127       130
       128       127       130       131       128       127       130       132
       128       127       130       133       129       127       130       131
       129       127       130       132       129       127       130       133
      2661      2665      2668      2669      2661      2665      2668      2699
      2661      2707      2704      2699      2661      2707      2704      2705
      2661      2707      2704      2706      2662      2661      2663      2664
      2662      2661      2665      2666      2662      2661      2665      2667
      2662      2661      2665      2668      2662      2661      2707      2704
      2662      2661      2707      2708      2662      2661      2707      2709
      2663      2661      2665      2666      2663      2661      2665      2667
      2663      2661      2665      2668      2663      2661      2707      2704
      2663      2661      2707      2708      2663      2661      2707      2709
      2664      2663      2661      2665      2664      2663      2661      2707
      2665      2661      2707      2704      2665      2661      2707      2708
      2665      2661      2707      2709      2665      2668      2669      2670
      2665      2668      2669      2671      2665      2668      2699      2697
      2665      2668      2699      2700      2665      2668      2699      2704
      2666      2665      2661      2707      2666      2665      2668      2669
      2666      2665      2668      2699      2667      2665      2661      2707
      2667      2665      2668      2669      2667      2665      2668      2699
      2668      2665      2661      2707      2668      2669      2671      2672
      2668      2669      2671      2673      2668      2669      2671      2674
      2668      2699      2697      2674      2668      2699      2697      2694
      2668      2699      2697      2698      2668      2699      2700      2701
      2668      2699      2700      2702      2668      2699      2700      2703
      2668      2699      2704      2705      2668      2699      2704      2706
      2668      2699      2704      2707      2669      2668      2699      2697
      2669      2668      2699      2700      2669      2668      2699      2704
      2669      2671      2674      2675      2669      2671      2674      2676
      2669      2671      2674      2697      2670      2669      2668      2699
      2670      2669      2671      2672      2670      2669      2671      2673
      2670      2669      2671      2674      2671      2669      2668      2699
      2671      2674      2676      2677      2671      2674      2676      2678
      2671      2674      2676      2686      2671      2674      2697      2694
      2671      2674      2697      2698      2671      2674      2697      2699
      2672      2671      2674      2675      2672      2671      2674      2676
      2672      2671      2674      2697      2673      2671      2674      2675
      2673      2671      2674      2676      2673      2671      2674      2697
      2674      2676      2678      2679      2674      2676      2678      2680
      2674      2676      2678      2681      2674      2676      2686      2684
      2674      2676      2686      2687      2674      2676      2686      2691
      2674      2697      2694      2691      2674      2697      2694      2695
      2674      2697      2694      2696      2674      2697      2699      2700
      2674      2697      2699      2704      2675      2674      2676      2677
      2675      2674      2676      2678      2675      2674      2676      2686
      2675      2674      2697      2694      2675      2674      2697      2698
      2675      2674      2697      2699      2676      2674      2697      2694
      2676      2674      2697      2698      2676      2674      2697      2699
      2676      2678      2681      2682      2676      2678      2681      2683
      2676      2678      2681      2684      2676      2686      2684      2681
      2676      2686      2684      2685      2676      2686      2684      2710
      2676      2686      2687      2688      2676      2686      2687      2689
      2676      2686      2687      2690      2676      2686      2691      2692
      2676      2686      2691      2693      2676      2686      2691      2694
      2677      2676      2674      2697      2677      2676      2678      2679
      2677      2676      2678      2680      2677      2676      2678      2681
      2677      2676      2686      2684      2677      2676      2686      2687
      2677      2676      2686      2691      2678      2676      2674      2697
      2678      2676      2686      2684      2678      2676      2686      2687
      2678      2676      2686      2691      2678      2681      2684      2685
      2678      2681      2684      2686      2678      2681      2684      2710
      2679      2678      2676      2686      2679      2678      2681      2682
      2679      2678      2681      2683      2679      2678      2681      2684
      2680      2678      2676      2686      2680      2678      2681      2682
      2680      2678      2681      2683      2680      2678      2681      2684
      2681      2678      2676      2686      2681      2684      2686      2687
      2681      2684      2686      2691      2681      2684      2710      2711
      2681      2684      2710      2712      2681      2684      2710      2716
      2682      2681      2684      2685      2682      2681      2684      2686
      2682      2681      2684      2710      2683      2681      2684      2685
      2683      2681      2684      2686      2683      2681      2684      2710
      2684      2686      2687      2688      2684      2686      2687      2689
      2684      2686      2687      2690      2684      2686      2691      2692
      2684      2686      2691      2693      2684      2686      2691      2694
      2684      2710      2712      2713      2684      2710      2712      2714
      2684      2710      2712      2715      2684      2710      2716      2717
      2684      2710      2716      2718      2684      2710      2716      2719
      2685      2684      2686      2687      2685      2684      2686      2691
      2685      2684      2710      2711      2685      2684      2710      2712
      2685      2684      2710      2716      2686      2676      2674      2697
      2686      2684      2710      2711      2686      2684      2710      2712
      2686      2684      2710      2716      2686      2691      2694      2695
      2686      2691      2694      2696      2686      2691      2694      2697
      2687      2686      2684      2710      2687      2686      2691      2692
      2687      2686      2691      2693      2687      2686      2691      2694
      2688      2687      2686      2691      2689      2687      2686      2691
      2690      2687      2686      2691      2691      2686      2684      2710
      2691      2694      2697      2698      2691      2694      2697      2699
      2692      2691      2694      2695      2692      2691      2694      2696
      2692      2691      2694      2697      2693      2691      2694      2695
      2693      2691      2694      2696      2693      2691      2694      2697
      2694      2697      2699      2700      2694      2697      2699      2704
      2695      2694      2697      2698      2695      2694      2697      2699
      2696      2694      2697      2698      2696      2694      2697      2699
      2697      2699      2700      2701      2697      2699      2700      2702
      2697      2699      2700      2703      2697      2699      2704      2705
      2697      2699      2704      2706      2697      2699      2704      2707
      2698      2697      2699      2700      2698      2697      2699      2704
      2699      2704      2707      2708      2699      2704      2707      2709
      2700      2699      2704      2705      2700      2699      2704      2706
      2700      2699      2704      2707      2701      2700      2699      2704
      2702      2700      2699      2704      2703      2700      2699      2704
      2705      2704      2707      2708      2705      2704      2707      2709
      2706      2704      2707      2708      2706      2704      2707      2709
      2710      2716      2719      2720      2710      2716      2719      2721
      2710      2716      2719      2722      2711      2710      2712      2713
      2711      2710      2712      2714      2711      2710      2712      2715
      2711      2710      2716      2717      2711      2710      2716      2718
      2711      2710      2716      2719      2712      2710      2716      2717
      2712      2710      2716      2718      2712      2710      2716      2719
      2713      2712      2710      2716      2714      2712      2710      2716
      2715      2712      2710      2716      2716      2719      2722      2723
      2716      2719      2722      2724      2716      2719      2722      2725
      2717      2716      2719      2720      2717      2716      2719      2721
      2717      2716      2719      2722      2718      2716      2719      2720
      2718      2716      2719      2721      2718      2716      2719      2722
      2719      2722      2725      2726      2719      2722      2725      2727
      2719      2722      2725      2731      2720      2719      2722      2723
      2720      2719      2722      2724      2720      2719      2722      2725
      2721      2719      2722      2723      2721      2719      2722      2724
      2721      2719      2722      2725      2722      2725      2727      2728
      2722      2725      2727      2729      2722      2725      2727      2730
      2722      2725      2731      2732      2722      2725      2731      2733
      2722      2725      2731      2734      2723      2722      2725      2726
      2723      2722      2725      2727      2723      2722      2725      2731
      2724      2722      2725      2726      2724      2722      2725      2727
      2724      2722      2725      2731      2726      2725      2727      2728
      2726      2725      2727      2729      2726      2725      2727      2730
      2726      2725      2731      2732      2726      2725      2731      2733
      2726      2725      2731      2734      2727      2725      2731      2732
      2727      2725      2731      2733      2727      2725      2731      2734
      2728      2727      2725      2731      2729      2727      2725      2731
      2730      2727      2725      2731      6805      6809      6812      6813
      6805      6809      6812      6814      6805      6809      6812      6818
      6806      6805      6809      6810      6806      6805      6809      6811
      6806      6805      6809      6812      6807      6805      6809      6810
      6807      6805      6809      6811      6807      6805      6809      6812
      6808      6805      6809      6810      6808      6805      6809      6811
      6808      6805      6809      6812      6809      6812      6818      6815
      6810      6809      6812      6813      6810      6809      6812      6814
      6810      6809      6812      6818      6811      6809      6812      6813
      6811      6809      6812      6814      6811      6809      6812      6818
      6812      6818      6815      6816      6812      6818      6815      6817
      6812      6818      6815      6819      6813      6812      6818      6815
      6814      6812      6818      6815      6815      6819      6820      6821
      6815      6819      6820      6822      6815      6819      6820      6823
      6816      6815      6819      6820      6817      6815      6819      6820
      6818      6815      6819      6820      6819      6820      6823      6824
      6819      6820      6823      6825      6819      6820      6823      6831
      6820      6823      6825      6826      6820      6823      6831      6832
      6820      6823      6831      6833      6820      6823      6831      6834
      6821      6820      6823      6824      6821      6820      6823      6825
      6821      6820      6823      6831      6822      6820      6823      6824
      6822      6820      6823      6825      6822      6820      6823      6831
      6823      6825      6826      6827      6823      6825      6826      6828
      6823      6831      6834      6835      6824      6823      6825      6826
      6824      6823      6831      6832      6824      6823      6831      6833
      6824      6823      6831      6834      6825      6823      6831      6832
      6825      6823      6831      6833      6825      6823      6831      6834
      6825      6826      6828      6829      6825      6826      6828      6830
      6825      6826      6828      6840      6826      6825      6823      6831
      6826      6828      6840      6841      6826      6828      6840      6842
      6826      6828      6840      6843      6827      6826      6828      6829
      6827      6826      6828      6830      6827      6826      6828      6840
      6828      6840      6843      6844      6828      6840      6843      6845
      6828      6840      6843      6846      6829      6828      6840      6841
      6829      6828      6840      6842      6829      6828      6840      6843
      6830      6828      6840      6841      6830      6828      6840      6842
      6830      6828      6840      6843      6831      6834      6835      6836
      6831      6834      6835      6837      6832      6831      6834      6835
      6833      6831      6834      6835      6834      6835      6837      6838
      6834      6835      6837      6839      6834      6835      6837      6887
      6835      6837      6887      6888      6835      6837      6887      6889
      6835      6837      6887      6890      6836      6835      6837      6838
      6836      6835      6837      6839      6836      6835      6837      6887
      6837      6887      6890      6891      6837      6887      6890      6892
      6837      6887      6890      6893      6838      6837      6887      6888
      6838      6837      6887      6889      6838      6837      6887      6890
      6839      6837      6887      6888      6839      6837      6887      6889
      6839      6837      6887      6890      6840      6843      6846      6847
      6840      6843      6846      6848      6840      6843      6846      6849
      6841      6840      6843      6844      6841      6840      6843      6845
      6841      6840      6843      6846      6842      6840      6843      6844
      6842      6840      6843      6845      6842      6840      6843      6846
      6843      6846      6849      6850      6843      6846      6849      6851
      6843      6846      6849      6852      6844      6843      6846      6847
      6844      6843      6846      6848      6844      6843      6846      6849
      6845      6843      6846      6847      6845      6843      6846      6848
      6845      6843      6846      6849      6846      6849      6852      6853
      6846      6849      6852      6854      6846      6849      6852      6855
      6847      6846      6849      6850      6847      6846      6849      6851
      6847      6846      6849      6852      6848      6846      6849      6850
      6848      6846      6849      6851      6848      6846      6849      6852
      6849      6852      6855      6856      6849      6852      6855      6857
      6849      6852      6855      6858      6850      6849      6852      6853
      6850      6849      6852      6854      6850      6849      6852      6855
      6851      6849      6852      6853      6851      6849      6852      6854
      6851      6849      6852      6855      6852      6855      6858      6859
      6852      6855      6858      6860      6853      6852      6855      6856
      6853      6852      6855      6857      6853      6852      6855      6858
      6854      6852      6855      6856      6854      6852      6855      6857
      6854      6852      6855      6858      6855      6858      6860      6861
      6855      6858      6860      6862      6856      6855      6858      6859
      6856      6855      6858      6860      6857      6855      6858      6859
      6857      6855      6858      6860      6858      6860      6862      6863
      6858      6860      6862      6864      6858      6860      6862      6865
      6859      6858      6860      6861      6859      6858      6860      6862
      6860      6862      6865      6866      6860      6862      6865      6867
      6860      6862      6865      6868      6861      6860      6862      6863
      6861      6860      6862      6864      6861      6860      6862      6865
      6862      6865      6868      6869      6862      6865      6868      6870
      6862      6865      6868      6871      6863      6862      6865      6866
      6863      6862      6865      6867      6863      6862      6865      6868
      6864      6862      6865      6866      6864      6862      6865      6867
      6864      6862      6865      6868      6865      6868      6871      6872
      6865      6868      6871      6873      6865      6868      6871      6874
      6866      6865      6868      6869      6866      6865      6868      6870
      6866      6865      6868      6871      6867      6865      6868      6869
      6867      6865      6868      6870      6867      6865      6868      6871
      6868      6871      6874      6875      6868      6871      6874      6876
      6868      6871      6874      6877      6869      6868      6871      6872
      6869      6868      6871      6873      6869      6868      6871      6874
      6870      6868      6871      6872      6870      6868      6871      6873
      6870      6868      6871      6874      6871      6874      6877      6878
      6871      6874      6877      6879      6871      6874      6877      6880
      6872      6871      6874      6875      6872      6871      6874      6876
      6872      6871      6874      6877      6873      6871      6874      6875
      6873      6871      6874      6876      6873      6871      6874      6877
      6874      6877      6880      6881      6874      6877      6880      6882
      6874      6877      6880      6883      6875      6874      6877      6878
      6875      6874      6877      6879      6875      6874      6877      6880
      6876      6874      6877      6878      6876      6874      6877      6879
      6876      6874      6877      6880      6877      6880      6883      6884
      6877      6880      6883      6885      6877      6880      6883      6886
      6878      6877      6880      6881      6878      6877      6880      6882
      6878      6877      6880      6883      6879      6877      6880      6881
      6879      6877      6880      6882      6879      6877      6880      6883
      6881      6880      6883      6884      6881      6880      6883      6885
      6881      6880      6883      6886      6882      6880      6883      6884
      6882      6880      6883      6885      6882      6880      6883      6886
      6887      6890      6893      6894      6887      6890      6893      6895
      6887      6890      6893      6896      6888      6887      6890      6891
      6888      6887      6890      6892      6888      6887      6890      6893
      6889      6887      6890      6891      6889      6887      6890      6892
      6889      6887      6890      6893      6890      6893      6896      6897
      6890      6893      6896      6898      6890      6893      6896      6899
      6891      6890      6893      6894      6891      6890      6893      6895
      6891      6890      6893      6896      6892      6890      6893      6894
      6892      6890      6893      6895      6892      6890      6893      6896
      6893      6896      6899      6900      6893      6896      6899      6901
      6893      6896      6899      6902      6894      6893      6896      6897
      6894      6893      6896      6898      6894      6893      6896      6899
      6895      6893      6896      6897      6895      6893      6896      6898
      6895      6893      6896      6899      6896      6899      6902      6903
      6896      6899      6902      6904      6896      6899      6902      6905
      6897      6896      6899      6900      6897      6896      6899      6901
      6897      6896      6899      6902      6898      6896      6899      6900
      6898      6896      6899      6901      6898      6896      6899      6902
      6899      6902      6905      6906      6899      6902      6905      6907
      6899      6902      6905      6908      6900      6899      6902      6903
      6900      6899      6902      6904      6900      6899      6902      6905
      6901      6899      6902      6903      6901      6899      6902      6904
      6901      6899      6902      6905      6902      6905      6908      6909
      6902      6905      6908      6910      6902      6905      6908      6911
      6903      6902      6905      6906      6903      6902      6905      6907
      6903      6902      6905      6908      6904      6902      6905      6906
      6904      6902      6905      6907      6904      6902      6905      6908
      6905      6908      6911      6912      6905      6908      6911      6913
      6905      6908      6911      6914      6906      6905      6908      6909
      6906      6905      6908      6910      6906      6905      6908      6911
      6907      6905      6908      6909      6907      6905      6908      6910
      6907      6905      6908      6911      6908      6911      6914      6915
      6908      6911      6914      6916      6908      6911      6914      6917
      6909      6908      6911      6912      6909      6908      6911      6913
      6909      6908      6911      6914      6910      6908      6911      6912
      6910      6908      6911      6913      6910      6908      6911      6914
      6911      6914      6917      6918      6911      6914      6917      6919
      6911      6914      6917      6920      6912      6911      6914      6915
      6912      6911      6914      6916      6912      6911      6914      6917
      6913      6911      6914      6915      6913      6911      6914      6916
      6913      6911      6914      6917      6914      6917      6920      6921
      6914      6917      6920      6922      6914      6917      6920      6923
      6915      6914      6917      6918      6915      6914      6917      6919
      6915      6914      6917      6920      6916      6914      6917      6918
      6916      6914      6917      6919      6916      6914      6917      6920
      6917      6920      6923      6924      6917      6920      6923      6925
      6917      6920      6923      6926      6918      6917      6920      6921
      6918      6917      6920      6922      6918      6917      6920      6923
      6919      6917      6920      6921      6919      6917      6920      6922
      6919      6917      6920      6923      6920      6923      6926      6927
      6920      6923      6926      6928      6920      6923      6926      6929
      6921      6920      6923      6924      6921      6920      6923      6925
      6921      6920      6923      6926      6922      6920      6923      6924
      6922      6920      6923      6925      6922      6920      6923      6926
      6923      6926      6929      6930      6923      6926      6929      6931
      6923      6926      6929      6932      6924      6923      6926      6927
      6924      6923      6926      6928      6924      6923      6926      6929
      6925      6923      6926      6927      6925      6923      6926      6928
      6925      6923      6926      6929      6926      6929      6932      6933
      6926      6929      6932      6934      6926      6929      6932      6935
      6927      6926      6929      6930      6927      6926      6929      6931
      6927      6926      6929      6932      6928      6926      6929      6930
      6928      6926      6929      6931      6928      6926      6929      6932
      6930      6929      6932      6933      6930      6929      6932      6934
      6930      6929      6932      6935      6931      6929      6932      6933
      6931      6929      6932      6934      6931      6929      6932      6935
      2735      2739      2742      2743      2735      2739      2742      2773
      2735      2781      2778      2773      2735      2781      2778      2779
      2735      2781      2778      2780      2736      2735      2737      2738
      2736      2735      2739      2740      2736      2735      2739      2741
      2736      2735      2739      2742      2736      2735      2781      2778
      2736      2735      2781      2782      2736      2735      2781      2783
      2737      2735      2739      2740      2737      2735      2739      2741
      2737      2735      2739      2742      2737      2735      2781      2778
      2737      2735      2781      2782      2737      2735      2781      2783
      2738      2737      2735      2739      2738      2737      2735      2781
      2739      2735      2781      2778      2739      2735      2781      2782
      2739      2735      2781      2783      2739      2742      2743      2744
      2739      2742      2743      2745      2739      2742      2773      2771
      2739      2742      2773      2774      2739      2742      2773      2778
      2740      2739      2735      2781      2740      2739      2742      2743
      2740      2739      2742      2773      2741      2739      2735      2781
      2741      2739      2742      2743      2741      2739      2742      2773
      2742      2739      2735      2781      2742      2743      2745      2746
      2742      2743      2745      2747      2742      2743      2745      2748
      2742      2773      2771      2748      2742      2773      2771      2768
      2742      2773      2771      2772      2742      2773      2774      2775
      2742      2773      2774      2776      2742      2773      2774      2777
      2742      2773      2778      2779      2742      2773      2778      2780
      2742      2773      2778      2781      2743      2742      2773      2771
      2743      2742      2773      2774      2743      2742      2773      2778
      2743      2745      2748      2749      2743      2745      2748      2750
      2743      2745      2748      2771      2744      2743      2742      2773
      2744      2743      2745      2746      2744      2743      2745      2747
      2744      2743      2745      2748      2745      2743      2742      2773
      2745      2748      2750      2751      2745      2748      2750      2752
      2745      2748      2750      2760      2745      2748      2771      2768
      2745      2748      2771      2772      2745      2748      2771      2773
      2746      2745      2748      2749      2746      2745      2748      2750
      2746      2745      2748      2771      2747      2745      2748      2749
      2747      2745      2748      2750      2747      2745      2748      2771
      2748      2750      2752      2753      2748      2750      2752      2754
      2748      2750      2752      2755      2748      2750      2760      2758
      2748      2750      2760      2761      2748      2750      2760      2765
      2748      2771      2768      2765      2748      2771      2768      2769
      2748      2771      2768      2770      2748      2771      2773      2774
      2748      2771      2773      2778      2749      2748      2750      2751
      2749      2748      2750      2752      2749      2748      2750      2760
      2749      2748      2771      2768      2749      2748      2771      2772
      2749      2748      2771      2773      2750      2748      2771      2768
      2750      2748      2771      2772      2750      2748      2771      2773
      2750      2752      2755      2756      2750      2752      2755      2757
      2750      2752      2755      2758      2750      2760      2758      2755
      2750      2760      2758      2759      2750      2760      2758      2784
      2750      2760      2761      2762      2750      2760      2761      2763
      2750      2760      2761      2764      2750      2760      2765      2766
      2750      2760      2765      2767      2750      2760      2765      2768
      2751      2750      2748      2771      2751      2750      2752      2753
      2751      2750      2752      2754      2751      2750      2752      2755
      2751      2750      2760      2758      2751      2750      2760      2761
      2751      2750      2760      2765      2752      2750      2748      2771
      2752      2750      2760      2758      2752      2750      2760      2761
      2752      2750      2760      2765      2752      2755      2758      2759
      2752      2755      2758      2760      2752      2755      2758      2784
      2753      2752      2750      2760      2753      2752      2755      2756
      2753      2752      2755      2757      2753      2752      2755      2758
      2754      2752      2750      2760      2754      2752      2755      2756
      2754      2752      2755      2757      2754      2752      2755      2758
      2755      2752      2750      2760      2755      2758      2760      2761
      2755      2758      2760      2765      2755      2758      2784      2785
      2755      2758      2784      2786      2755      2758      2784      2790
      2756      2755      2758      2759      2756      2755      2758      2760
      2756      2755      2758      2784      2757      2755      2758      2759
      2757      2755      2758      2760      2757      2755      2758      2784
      2758      2760      2761      2762      2758      2760      2761      2763
      2758      2760      2761      2764      2758      2760      2765      2766
      2758      2760      2765      2767      2758      2760      2765      2768
      2758      2784      2786      2787      2758      2784      2786      2788
      2758      2784      2786      2789      2758      2784      2790      2791
      2758      2784      2790      2792      2758      2784      2790      2793
      2759      2758      2760      2761      2759      2758      2760      2765
      2759      2758      2784      2785      2759      2758      2784      2786
      2759      2758      2784      2790      2760      2750      2748      2771
      2760      2758      2784      2785      2760      2758      2784      2786
      2760      2758      2784      2790      2760      2765      2768      2769
      2760      2765      2768      2770      2760      2765      2768      2771
      2761      2760      2758      2784      2761      2760      2765      2766
      2761      2760      2765      2767      2761      2760      2765      2768
      2762      2761      2760      2765      2763      2761      2760      2765
      2764      2761      2760      2765      2765      2760      2758      2784
      2765      2768      2771      2772      2765      2768      2771      2773
      2766      2765      2768      2769      2766      2765      2768      2770
      2766      2765      2768      2771      2767      2765      2768      2769
      2767      2765      2768      2770      2767      2765      2768      2771
      2768      2771      2773      2774      2768      2771      2773      2778
      2769      2768      2771      2772      2769      2768      2771      2773
      2770      2768      2771      2772      2770      2768      2771      2773
      2771      2773      2774      2775      2771      2773      2774      2776
      2771      2773      2774      2777      2771      2773      2778      2779
      2771      2773      2778      2780      2771      2773      2778      2781
      2772      2771      2773      2774      2772      2771      2773      2778
      2773      2778      2781      2782      2773      2778      2781      2783
      2774      2773      2778      2779      2774      2773      2778      2780
      2774      2773      2778      2781      2775      2774      2773      2778
      2776      2774      2773      2778      2777      2774      2773      2778
      2779      2778      2781      2782      2779      2778      2781      2783
      2780      2778      2781      2782      2780      2778      2781      2783
      2784      2790      2793      2794      2784      2790      2793      2795
      2784      2790      2793      2796      2785      2784      2786      2787
      2785      2784      2786      2788      2785      2784      2786      2789
      2785      2784      2790      2791      2785      2784      2790      2792
      2785      2784      2790      2793      2786      2784      2790      2791
      2786      2784      2790      2792      2786      2784      2790      2793
      2787      2786      2784      2790      2788      2786      2784      2790
      2789      2786      2784      2790      2790      2793      2796      2797
      2790      2793      2796      2798      2790      2793      2796      2799
      2791      2790      2793      2794      2791      2790      2793      2795
      2791      2790      2793      2796      2792      2790      2793      2794
      2792      2790      2793      2795      2792      2790      2793      2796
      2793      2796      2799      2800      2793      2796      2799      2801
      2793      2796      2799      2805      2794      2793      2796      2797
      2794      2793      2796      2798      2794      2793      2796      2799
      2795      2793      2796      2797      2795      2793      2796      2798
      2795      2793      2796      2799      2796      2799      2801      2802
      2796      2799      2801      2803      2796      2799      2801      2804
      2796      2799      2805      2806      2796      2799      2805      2807
      2796      2799      2805      2808      2797      2796      2799      2800
      2797      2796      2799      2801      2797      2796      2799      2805
      2798      2796      2799      2800      2798      2796      2799      2801
      2798      2796      2799      2805      2800      2799      2801      2802
      2800      2799      2801      2803      2800      2799      2801      2804
      2800      2799      2805      2806      2800      2799      2805      2807
      2800      2799      2805      2808      2801      2799      2805      2806
      2801      2799      2805      2807      2801      2799      2805      2808
      2802      2801      2799      2805      2803      2801      2799      2805
      2804      2801      2799      2805      8377      8378      8393      8394
      8377      8378      8393      8395      8377      8378      8393      8399
      8378      8377      8381      8382      8378      8377      8381      8383
      8378      8377      8381      8384      8378      8377      8385      8386
      8378      8377      8385      8387      8378      8377      8385      8388
      8378      8377      8389      8390      8378      8377      8389      8391
      8378      8377      8389      8392      8378      8393      8399      8396
      8379      8378      8377      8381      8379      8378      8377      8385
      8379      8378      8377      8389      8379      8378      8393      8394
      8379      8378      8393      8395      8379      8378      8393      8399
      8380      8378      8377      8381      8380      8378      8377      8385
      8380      8378      8377      8389      8380      8378      8393      8394
      8380      8378      8393      8395      8380      8378      8393      8399
      8381      8377      8378      8393      8381      8377      8385      8386
      8381      8377      8385      8387      8381      8377      8385      8388
      8381      8377      8389      8390      8381      8377      8389      8391
      8381      8377      8389      8392      8382      8381      8377      8385
      8382      8381      8377      8389      8383      8381      8377      8385
      8383      8381      8377      8389      8384      8381      8377      8385
      8384      8381      8377      8389      8385      8377      8378      8393
      8385      8377      8389      8390      8385      8377      8389      8391
      8385      8377      8389      8392      8386      8385      8377      8389
      8387      8385      8377      8389      8388      8385      8377      8389
      8389      8377      8378      8393      8393      8399      8396      8397
      8393      8399      8396      8398      8393      8399      8396      8400
      8394      8393      8399      8396      8395      8393      8399      8396
      8396      8400      8401      8402      8396      8400      8401      8403
      8396      8400      8401      8404      8397      8396      8400      8401
      8398      8396      8400      8401      8399      8396      8400      8401
      8400      8401      8404      8405      8400      8401      8404      8406
      8400      8401      8404      8412      8401      8404      8406      8407
      8401      8404      8412      8413      8401      8404      8412      8414
      8401      8404      8412      8415      8402      8401      8404      8405
      8402      8401      8404      8406      8402      8401      8404      8412
      8403      8401      8404      8405      8403      8401      8404      8406
      8403      8401      8404      8412      8404      8406      8407      8408
      8404      8406      8407      8409      8404      8412      8415      8416
      8405      8404      8406      8407      8405      8404      8412      8413
      8405      8404      8412      8414      8405      8404      8412      8415
      8406      8404      8412      8413      8406      8404      8412      8414
      8406      8404      8412      8415      8406      8407      8409      8410
      8406      8407      8409      8411      8406      8407      8409      8421
      8407      8406      8404      8412      8407      8409      8421      8422
      8407      8409      8421      8423      8407      8409      8421      8424
      8408      8407      8409      8410      8408      8407      8409      8411
      8408      8407      8409      8421      8409      8421      8424      8425
      8409      8421      8424      8426      8409      8421      8424      8427
      8410      8409      8421      8422      8410      8409      8421      8423
      8410      8409      8421      8424      8411      8409      8421      8422
      8411      8409      8421      8423      8411      8409      8421      8424
      8412      8415      8416      8417      8412      8415      8416      8418
      8413      8412      8415      8416      8414      8412      8415      8416
      8415      8416      8418      8419      8415      8416      8418      8420
      8415      8416      8418      8468      8416      8418      8468      8469
      8416      8418      8468      8470      8416      8418      8468      8471
      8417      8416      8418      8419      8417      8416      8418      8420
      8417      8416      8418      8468      8418      8468      8471      8472
      8418      8468      8471      8473      8418      8468      8471      8474
      8419      8418      8468      8469      8419      8418      8468      8470
      8419      8418      8468      8471      8420      8418      8468      8469
      8420      8418      8468      8470      8420      8418      8468      8471
      8421      8424      8427      8428      8421      8424      8427      8429
      8422      8421      8424      8425      8422      8421      8424      8426
      8422      8421      8424      8427      8423      8421      8424      8425
      8423      8421      8424      8426      8423      8421      8424      8427
      8424      8427      8429      8430      8424      8427      8429      8431
      8425      8424      8427      8428      8425      8424      8427      8429
      8426      8424      8427      8428      8426      8424      8427      8429
      8427      8429      8431      8432      8427      8429      8431      8433
      8427      8429      8431      8434      8428      8427      8429      8430
      8428      8427      8429      8431      8429      8431      8434      8435
      8429      8431      8434      8436      8430      8429      8431      8432
      8430      8429      8431      8433      8430      8429      8431      8434
      8431      8434      8436      8437      8431      8434      8436      8438
      8432      8431      8434      8435      8432      8431      8434      8436
      8433      8431      8434      8435      8433      8431      8434      8436
      8434      8436      8438      8439      8434      8436      8438      8440
      8434      8436      8438      8441      8435      8434      8436      8437
      8435      8434      8436      8438      8436      8438      8441      8442
      8436      8438      8441      8443      8437      8436      8438      8439
      8437      8436      8438      8440      8437      8436      8438      8441
      8438      8441      8443      8444      8438      8441      8443      8445
      8439      8438      8441      8442      8439      8438      8441      8443
      8440      8438      8441      8442      8440      8438      8441      8443
      8441      8443      8445      8446      8441      8443      8445      8447
      8441      8443      8445      8448      8442      8441      8443      8444
      8442      8441      8443      8445      8443      8445      8448      8449
      8443      8445      8448      8450      8444      8443      8445      8446
      8444      8443      8445      8447      8444      8443      8445      8448
      8445      8448      8450      8451      8445      8448      8450      8452
      8446      8445      8448      8449      8446      8445      8448      8450
      8447      8445      8448      8449      8447      8445      8448      8450
      8448      8450      8452      8453      8448      8450      8452      8454
      8448      8450      8452      8455      8449      8448      8450      8451
      8449      8448      8450      8452      8450      8452      8455      8456
      8450      8452      8455      8457      8450      8452      8455      8458
      8451      8450      8452      8453      8451      8450      8452      8454
      8451      8450      8452      8455      8452      8455      8458      8459
      8452      8455      8458      8460      8452      8455      8458      8461
      8453      8452      8455      8456      8453      8452      8455      8457
      8453      8452      8455      8458      8454      8452      8455      8456
      8454      8452      8455      8457      8454      8452      8455      8458
      8455      8458      8461      8462      8455      8458      8461      8463
      8455      8458      8461      8464      8456      8455      8458      8459
      8456      8455      8458      8460      8456      8455      8458      8461
      8457      8455      8458      8459      8457      8455      8458      8460
      8457      8455      8458      8461      8458      8461      8464      8465
      8458      8461      8464      8466      8458      8461      8464      8467
      8459      8458      8461      8462      8459      8458      8461      8463
      8459      8458      8461      8464      8460      8458      8461      8462
      8460      8458      8461      8463      8460      8458      8461      8464
      8462      8461      8464      8465      8462      8461      8464      8466
      8462      8461      8464      8467      8463      8461      8464      8465
      8463      8461      8464      8466      8463      8461      8464      8467
      8468      8471      8474      8475      8468      8471      8474      8476
      8468      8471      8474      8477      8469      8468      8471      8472
      8469      8468      8471      8473      8469      8468      8471      8474
      8470      8468      8471      8472      8470      8468      8471      8473
      8470      8468      8471      8474      8471      8474      8477      8478
      8471      8474      8477      8479      8471      8474      8477      8480
      8472      8471      8474      8475      8472      8471      8474      8476
      8472      8471      8474      8477      8473      8471      8474      8475
      8473      8471      8474      8476      8473      8471      8474      8477
      8474      8477      8480      8481      8474      8477      8480      8482
      8474      8477      8480      8483      8475      8474      8477      8478
      8475      8474      8477      8479      8475      8474      8477      8480
      8476      8474      8477      8478      8476      8474      8477      8479
      8476      8474      8477      8480      8477      8480      8483      8484
      8477      8480      8483      8485      8477      8480      8483      8486
      8478      8477      8480      8481      8478      8477      8480      8482
      8478      8477      8480      8483      8479      8477      8480      8481
      8479      8477      8480      8482      8479      8477      8480      8483
      8480      8483      8486      8487      8480      8483      8486      8488
      8480      8483      8486      8489      8481      8480      8483      8484
      8481      8480      8483      8485      8481      8480      8483      8486
      8482      8480      8483      8484      8482      8480      8483      8485
      8482      8480      8483      8486      8483      8486      8489      8490
      8483      8486      8489      8491      8483      8486      8489      8492
      8484      8483      8486      8487      8484      8483      8486      8488
      8484      8483      8486      8489      8485      8483      8486      8487
      8485      8483      8486      8488      8485      8483      8486      8489
      8486      8489      8492      8493      8486      8489      8492      8494
      8486      8489      8492      8495      8487      8486      8489      8490
      8487      8486      8489      8491      8487      8486      8489      8492
      8488      8486      8489      8490      8488      8486      8489      8491
      8488      8486      8489      8492      8489      8492      8495      8496
      8489      8492      8495      8497      8489      8492      8495      8498
      8490      8489      8492      8493      8490      8489      8492      8494
      8490      8489      8492      8495      8491      8489      8492      8493
      8491      8489      8492      8494      8491      8489      8492      8495
      8492      8495      8498      8499      8492      8495      8498      8500
      8492      8495      8498      8501      8493      8492      8495      8496
      8493      8492      8495      8497      8493      8492      8495      8498
      8494      8492      8495      8496      8494      8492      8495      8497
      8494      8492      8495      8498      8495      8498      8501      8502
      8495      8498      8501      8503      8495      8498      8501      8504
      8496      8495      8498      8499      8496      8495      8498      8500
      8496      8495      8498      8501      8497      8495      8498      8499
      8497      8495      8498      8500      8497      8495      8498      8501
      8498      8501      8504      8505      8498      8501      8504      8506
      8498      8501      8504      8507      8499      8498      8501      8502
      8499      8498      8501      8503      8499      8498      8501      8504
      8500      8498      8501      8502      8500      8498      8501      8503
      8500      8498      8501      8504      8501      8504      8507      8508
      8501      8504      8507      8509      8501      8504      8507      8510
      8502      8501      8504      8505      8502      8501      8504      8506
      8502      8501      8504      8507      8503      8501      8504      8505
      8503      8501      8504      8506      8503      8501      8504      8507
      8504      8507      8510      8511      8504      8507      8510      8512
      8504      8507      8510      8513      8505      8504      8507      8508
      8505      8504      8507      8509      8505      8504      8507      8510
      8506      8504      8507      8508      8506      8504      8507      8509
      8506      8504      8507      8510      8507      8510      8513      8514
      8507      8510      8513      8515      8507      8510      8513      8516
      8508      8507      8510      8511      8508      8507      8510      8512
      8508      8507      8510      8513      8509      8507      8510      8511
      8509      8507      8510      8512      8509      8507      8510      8513
      8511      8510      8513      8514      8511      8510      8513      8515
      8511      8510      8513      8516      8512      8510      8513      8514
      8512      8510      8513      8515      8512      8510      8513      8516
     10057     10070     10073     10074     10057     10070     10073     10075
     10057     10070     10073     10080     10058     10057     10062     10063
     10058     10057     10062     10064     10058     10057     10062     10065
     10058     10057     10066     10067     10058     10057     10066     10068
     10058     10057     10066     10069     10058     10057     10070     10071
     10058     10057     10070     10072     10058     10057     10070     10073
     10059     10058     10057     10062     10059     10058     10057     10066
     10059     10058     10057     10070     10060     10058     10057     10062
     10060     10058     10057     10066     10060     10058     10057     10070
     10061     10058     10057     10062     10061     10058     10057     10066
     10061     10058     10057     10070     10062     10057     10066     10067
     10062     10057     10066     10068     10062     10057     10066     10069
     10062     10057     10070     10071     10062     10057     10070     10072
     10062     10057     10070     10073     10063     10062     10057     10066
     10063     10062     10057     10070     10064     10062     10057     10066
     10064     10062     10057     10070     10065     10062     10057     10066
     10065     10062     10057     10070     10066     10057     10070     10071
     10066     10057     10070     10072     10066     10057     10070     10073
     10067     10066     10057     10070     10068     10066     10057     10070
     10069     10066     10057     10070     10070     10073     10080     10076
     10071     10070     10073     10074     10071     10070     10073     10075
     10071     10070     10073     10080     10072     10070     10073     10074
     10072     10070     10073     10075     10072     10070     10073     10080
     10073     10080     10076     10077     10073     10080     10076     10078
     10073     10080     10076     10079     10074     10073     10080     10076
     10075     10073     10080     10076     10076     10079     10081     10082
     10076     10079     10081     10083     10076     10079     10081     10086
     10077     10076     10079     10081     10078     10076     10079     10081
     10079     10081     10086     10084     10079     10081     10086     10087
     10079     10081     10086     10088     10080     10076     10079     10081
     10081     10086     10084     10085     10081     10086     10084     10136
     10081     10086     10088     10089     10081     10086     10088     10090
     10081     10086     10088     10092     10082     10081     10086     10084
     10082     10081     10086     10087     10082     10081     10086     10088
     10083     10081     10086     10084     10083     10081     10086     10087
     10083     10081     10086     10088     10084     10086     10088     10089
     10084     10086     10088     10090     10084     10086     10088     10092
     10084     10136     10138     10139     10084     10136     10138     10140
     10084     10136     10138     10141     10085     10084     10086     10087
     10085     10084     10086     10088     10085     10084     10136     10137
     10085     10084     10136     10138     10086     10084     10136     10137
     10086     10084     10136     10138     10086     10088     10090     10091
     10086     10088     10092     10093     10086     10088     10092     10094
     10087     10086     10084     10136     10087     10086     10088     10089
     10087     10086     10088     10090     10087     10086     10088     10092
     10088     10086     10084     10136     10088     10092     10094     10095
     10088     10092     10094     10096     10089     10088     10090     10091
     10089     10088     10092     10093     10089     10088     10092     10094
     10090     10088     10092     10093     10090     10088     10092     10094
     10091     10090     10088     10092     10092     10094     10096     10097
     10092     10094     10096     10098     10092     10094     10096     10099
     10093     10092     10094     10095     10093     10092     10094     10096
     10094     10096     10099     10100     10094     10096     10099     10101
     10094     10096     10099     10102     10095     10094     10096     10097
     10095     10094     10096     10098     10095     10094     10096     10099
     10096     10099     10102     10103     10096     10099     10102     10104
     10096     10099     10102     10105     10097     10096     10099     10100
     10097     10096     10099     10101     10097     10096     10099     10102
     10098     10096     10099     10100     10098     10096     10099     10101
     10098     10096     10099     10102     10099     10102     10105     10106
     10099     10102     10105     10107     10099     10102     10105     10108
     10100     10099     10102     10103     10100     10099     10102     10104
     10100     10099     10102     10105     10101     10099     10102     10103
     10101     10099     10102     10104     10101     10099     10102     10105
     10102     10105     10108     10109     10102     10105     10108     10110
     10102     10105     10108     10111     10103     10102     10105     10106
     10103     10102     10105     10107     10103     10102     10105     10108
     10104     10102     10105     10106     10104     10102     10105     10107
     10104     10102     10105     10108     10105     10108     10111     10112
     10105     10108     10111     10113     10105     10108     10111     10114
     10106     10105     10108     10109     10106     10105     10108     10110
     10106     10105     10108     10111     10107     10105     10108     10109
     10107     10105     10108     10110     10107     10105     10108     10111
     10108     10111     10114     10115     10108     10111     10114     10116
     10108     10111     10114     10117     10109     10108     10111     10112
     10109     10108     10111     10113     10109     10108     10111     10114
     10110     10108     10111     10112     10110     10108     10111     10113
     10110     10108     10111     10114     10111     10114     10117     10118
     10111     10114     10117     10119     10111     10114     10117     10120
     10112     10111     10114     10115     10112     10111     10114     10116
     10112     10111     10114     10117     10113     10111     10114     10115
     10113     10111     10114     10116     10113     10111     10114     10117
     10114     10117     10120     10121     10114     10117     10120     10122
     10114     10117     10120     10123     10115     10114     10117     10118
     10115     10114     10117     10119     10115     10114     10117     10120
     10116     10114     10117     10118     10116     10114     10117     10119
     10116     10114     10117     10120     10117     10120     10123     10124
     10117     10120     10123     10125     10117     10120     10123     10126
     10118     10117     10120     10121     10118     10117     10120     10122
     10118     10117     10120     10123     10119     10117     10120     10121
     10119     10117     10120     10122     10119     10117     10120     10123
     10120     10123     10126     10127     10120     10123     10126     10128
     10120     10123     10126     10129     10121     10120     10123     10124
     10121     10120     10123     10125     10121     10120     10123     10126
     10122     10120     10123     10124     10122     10120     10123     10125
     10122     10120     10123     10126     10123     10126     10129     10130
     10123     10126     10129     10131     10123     10126     10129     10132
     10124     10123     10126     10127     10124     10123     10126     10128
     10124     10123     10126     10129     10125     10123     10126     10127
     10125     10123     10126     10128     10125     10123     10126     10129
     10126     10129     10132     10133     10126     10129     10132     10134
     10126     10129     10132     10135     10127     10126     10129     10130
     10127     10126     10129     10131     10127     10126     10129     10132
     10128     10126     10129     10130     10128     10126     10129     10131
     10128     10126     10129     10132     10130     10129     10132     10133
     10130     10129     10132     10134     10130     10129     10132     10135
     10131     10129     10132     10133     10131     10129     10132     10134
     10131     10129     10132     10135     10136     10138     10141     10142
     10136     10138     10141     10143     10136     10138     10141     10144
     10137     10136     10138     10139     10137     10136     10138     10140
     10137     10136     10138     10141     10138     10141     10144     10145
     10138     10141     10144     10146     10138     10141     10144     10147
     10139     10138     10141     10142     10139     10138     10141     10143
     10139     10138     10141     10144     10140     10138     10141     10142
     10140     10138     10141     10143     10140     10138     10141     10144
     10141     10144     10147     10148     10141     10144     10147     10149
     10141     10144     10147     10150     10142     10141     10144     10145
     10142     10141     10144     10146     10142     10141     10144     10147
     10143     10141     10144     10145     10143     10141     10144     10146
     10143     10141     10144     10147     10144     10147     10150     10151
     10144     10147     10150     10152     10144     10147     10150     10153
     10145     10144     10147     10148     10145     10144     10147     10149
     10145     10144     10147     10150     10146     10144     10147     10148
     10146     10144     10147     10149     10146     10144     10147     10150
     10147     10150     10153     10154     10147     10150     10153     10155
     10147     10150     10153     10156     10148     10147     10150     10151
     10148     10147     10150     10152     10148     10147     10150     10153
     10149     10147     10150     10151     10149     10147     10150     10152
     10149     10147     10150     10153     10150     10153     10156     10157
     10150     10153     10156     10158     10150     10153     10156     10159
     10151     10150     10153     10154     10151     10150     10153     10155
     10151     10150     10153     10156     10152     10150     10153     10154
     10152     10150     10153     10155     10152     10150     10153     10156
     10153     10156     10159     10160     10153     10156     10159     10161
     10154     10153     10156     10157     10154     10153     10156     10158
     10154     10153     10156     10159     10155     10153     10156     10157
     10155     10153     10156     10158     10155     10153     10156     10159
     10156     10159     10161     10162     10156     10159     10161     10163
     10157     10156     10159     10160     10157     10156     10159     10161
     10158     10156     10159     10160     10158     10156     10159     10161
     10159     10161     10163     10164     10159     10161     10163     10165
     10159     10161     10163     10166     10160     10159     10161     10162
     10160     10159     10161     10163     10161     10163     10166     10167
     10161     10163     10166     10168     10161     10163     10166     10169
     10162     10161     10163     10164     10162     10161     10163     10165
     10162     10161     10163     10166     10163     10166     10169     10170
     10163     10166     10169     10171     10163     10166     10169     10172
     10164     10163     10166     10167     10164     10163     10166     10168
     10164     10163     10166     10169     10165     10163     10166     10167
     10165     10163     10166     10168     10165     10163     10166     10169
     10166     10169     10172     10173     10166     10169     10172     10174
     10166     10169     10172     10175     10167     10166     10169     10170
     10167     10166     10169     10171     10167     10166     10169     10172
     10168     10166     10169     10170     10168     10166     10169     10171
     10168     10166     10169     10172     10169     10172     10175     10176
     10169     10172     10175     10177     10169     10172     10175     10178
     10170     10169     10172     10173     10170     10169     10172     10174
     10170     10169     10172     10175     10171     10169     10172     10173
     10171     10169     10172     10174     10171     10169     10172     10175
     10172     10175     10178     10179     10172     10175     10178     10180
     10172     10175     10178     10181     10173     10172     10175     10176
     10173     10172     10175     10177     10173     10172     10175     10178
     10174     10172     10175     10176     10174     10172     10175     10177
     10174     10172     10175     10178     10175     10178     10181     10182
     10175     10178     10181     10183     10175     10178     10181     10184
     10176     10175     10178     10179     10176     10175     10178     10180
     10176     10175     10178     10181     10177     10175     10178     10179
     10177     10175     10178     10180     10177     10175     10178     10181
     10178     10181     10184     10185     10178     10181     10184     10186
     10178     10181     10184     10187     10179     10178     10181     10182
     10179     10178     10181     10183     10179     10178     10181     10184
     10180     10178     10181     10182     10180     10178     10181     10183
     10180     10178     10181     10184     10182     10181     10184     10185
     10182     10181     10184     10186     10182     10181     10184     10187
     10183     10181     10184     10185     10183     10181     10184     10186
     10183     10181     10184     10187      2809      2813      2816      2817
      2809      2813      2816      2847      2809      2855      2852      2847
      2809      2855      2852      2853      2809      2855      2852      2854
      2810      2809      2811      2812      2810      2809      2813      2814
      2810      2809      2813      2815      2810      2809      2813      2816
      2810      2809      2855      2852      2810      2809      2855      2856
      2810      2809      2855      2857      2811      2809      2813      2814
      2811      2809      2813      2815      2811      2809      2813      2816
      2811      2809      2855      2852      2811      2809      2855      2856
      2811      2809      2855      2857      2812      2811      2809      2813
      2812      2811      2809      2855      2813      2809      2855      2852
      2813      2809      2855      2856      2813      2809      2855      2857
      2813      2816      2817      2818      2813      2816      2817      2819
      2813      2816      2847      2845      2813      2816      2847      2848
      2813      2816      2847      2852      2814      2813      2809      2855
      2814      2813      2816      2817      2814      2813      2816      2847
      2815      2813      2809      2855      2815      2813      2816      2817
      2815      2813      2816      2847      2816      2813      2809      2855
      2816      2817      2819      2820      2816      2817      2819      2821
      2816      2817      2819      2822      2816      2847      2845      2822
      2816      2847      2845      2842      2816      2847      2845      2846
      2816      2847      2848      2849      2816      2847      2848      2850
      2816      2847      2848      2851      2816      2847      2852      2853
      2816      2847      2852      2854      2816      2847      2852      2855
      2817      2816      2847      2845      2817      2816      2847      2848
      2817      2816      2847      2852      2817      2819      2822      2823
      2817      2819      2822      2824      2817      2819      2822      2845
      2818      2817      2816      2847      2818      2817      2819      2820
      2818      2817      2819      2821      2818      2817      2819      2822
      2819      2817      2816      2847      2819      2822      2824      2825
      2819      2822      2824      2826      2819      2822      2824      2834
      2819      2822      2845      2842      2819      2822      2845      2846
      2819      2822      2845      2847      2820      2819      2822      2823
      2820      2819      2822      2824      2820      2819      2822      2845
      2821      2819      2822      2823      2821      2819      2822      2824
      2821      2819      2822      2845      2822      2824      2826      2827
      2822      2824      2826      2828      2822      2824      2826      2829
      2822      2824      2834      2832      2822      2824      2834      2835
      2822      2824      2834      2839      2822      2845      2842      2839
      2822      2845      2842      2843      2822      2845      2842      2844
      2822      2845      2847      2848      2822      2845      2847      2852
      2823      2822      2824      2825      2823      2822      2824      2826
      2823      2822      2824      2834      2823      2822      2845      2842
      2823      2822      2845      2846      2823      2822      2845      2847
      2824      2822      2845      2842      2824      2822      2845      2846
      2824      2822      2845      2847      2824      2826      2829      2830
      2824      2826      2829      2831      2824      2826      2829      2832
      2824      2834      2832      2829      2824      2834      2832      2833
      2824      2834      2832      2858      2824      2834      2835      2836
      2824      2834      2835      2837      2824      2834      2835      2838
      2824      2834      2839      2840      2824      2834      2839      2841
      2824      2834      2839      2842      2825      2824      2822      2845
      2825      2824      2826      2827      2825      2824      2826      2828
      2825      2824      2826      2829      2825      2824      2834      2832
      2825      2824      2834      2835      2825      2824      2834      2839
      2826      2824      2822      2845      2826      2824      2834      2832
      2826      2824      2834      2835      2826      2824      2834      2839
      2826      2829      2832      2833      2826      2829      2832      2834
      2826      2829      2832      2858      2827      2826      2824      2834
      2827      2826      2829      2830      2827      2826      2829      2831
      2827      2826      2829      2832      2828      2826      2824      2834
      2828      2826      2829      2830      2828      2826      2829      2831
      2828      2826      2829      2832      2829      2826      2824      2834
      2829      2832      2834      2835      2829      2832      2834      2839
      2829      2832      2858      2859      2829      2832      2858      2860
      2829      2832      2858      2864      2830      2829      2832      2833
      2830      2829      2832      2834      2830      2829      2832      2858
      2831      2829      2832      2833      2831      2829      2832      2834
      2831      2829      2832      2858      2832      2834      2835      2836
      2832      2834      2835      2837      2832      2834      2835      2838
      2832      2834      2839      2840      2832      2834      2839      2841
      2832      2834      2839      2842      2832      2858      2860      2861
      2832      2858      2860      2862      2832      2858      2860      2863
      2832      2858      2864      2865      2832      2858      2864      2866
      2832      2858      2864      2867      2833      2832      2834      2835
      2833      2832      2834      2839      2833      2832      2858      2859
      2833      2832      2858      2860      2833      2832      2858      2864
      2834      2824      2822      2845      2834      2832      2858      2859
      2834      2832      2858      2860      2834      2832      2858      2864
      2834      2839      2842      2843      2834      2839      2842      2844
      2834      2839      2842      2845      2835      2834      2832      2858
      2835      2834      2839      2840      2835      2834      2839      2841
      2835      2834      2839      2842      2836      2835      2834      2839
      2837      2835      2834      2839      2838      2835      2834      2839
      2839      2834      2832      2858      2839      2842      2845      2846
      2839      2842      2845      2847      2840      2839      2842      2843
      2840      2839      2842      2844      2840      2839      2842      2845
      2841      2839      2842      2843      2841      2839      2842      2844
      2841      2839      2842      2845      2842      2845      2847      2848
      2842      2845      2847      2852      2843      2842      2845      2846
      2843      2842      2845      2847      2844      2842      2845      2846
      2844      2842      2845      2847      2845      2847      2848      2849
      2845      2847      2848      2850      2845      2847      2848      2851
      2845      2847      2852      2853      2845      2847      2852      2854
      2845      2847      2852      2855      2846      2845      2847      2848
      2846      2845      2847      2852      2847      2852      2855      2856
      2847      2852      2855      2857      2848      2847      2852      2853
      2848      2847      2852      2854      2848      2847      2852      2855
      2849      2848      2847      2852      2850      2848      2847      2852
      2851      2848      2847      2852      2853      2852      2855      2856
      2853      2852      2855      2857      2854      2852      2855      2856
      2854      2852      2855      2857      2858      2864      2867      2868
      2858      2864      2867      2869      2858      2864      2867      2870
      2859      2858      2860      2861      2859      2858      2860      2862
      2859      2858      2860      2863      2859      2858      2864      2865
      2859      2858      2864      2866      2859      2858      2864      2867
      2860      2858      2864      2865      2860      2858      2864      2866
      2860      2858      2864      2867      2861      2860      2858      2864
      2862      2860      2858      2864      2863      2860      2858      2864
      2864      2867      2870      2871      2864      2867      2870      2872
      2864      2867      2870      2873      2865      2864      2867      2868
      2865      2864      2867      2869      2865      2864      2867      2870
      2866      2864      2867      2868      2866      2864      2867      2869
      2866      2864      2867      2870      2867      2870      2873      2874
      2867      2870      2873      2875      2867      2870      2873      2879
      2868      2867      2870      2871      2868      2867      2870      2872
      2868      2867      2870      2873      2869      2867      2870      2871
      2869      2867      2870      2872      2869      2867      2870      2873
      2870      2873      2875      2876      2870      2873      2875      2877
      2870      2873      2875      2878      2870      2873      2879      2880
      2870      2873      2879      2881      2870      2873      2879      2882
      2871      2870      2873      2874      2871      2870      2873      2875
      2871      2870      2873      2879      2872      2870      2873      2874
      2872      2870      2873      2875      2872      2870      2873      2879
      2874      2873      2875      2876      2874      2873      2875      2877
      2874      2873      2875      2878      2874      2873      2879      2880
      2874      2873      2879      2881      2874      2873      2879      2882
      2875      2873      2879      2880      2875      2873      2879      2881
      2875      2873      2879      2882      2876      2875      2873      2879
      2877      2875      2873      2879      2878      2875      2873      2879
      2883      2887      2890      2891      2883      2887      2890      2921
      2883      2929      2926      2921      2883      2929      2926      2927
      2883      2929      2926      2928      2884      2883      2885      2886
      2884      2883      2887      2888      2884      2883      2887      2889
      2884      2883      2887      2890      2884      2883      2929      2926
      2884      2883      2929      2930      2884      2883      2929      2931
      2885      2883      2887      2888      2885      2883      2887      2889
      2885      2883      2887      2890      2885      2883      2929      2926
      2885      2883      2929      2930      2885      2883      2929      2931
      2886      2885      2883      2887      2886      2885      2883      2929
      2887      2883      2929      2926      2887      2883      2929      2930
      2887      2883      2929      2931      2887      2890      2891      2892
      2887      2890      2891      2893      2887      2890      2921      2919
      2887      2890      2921      2922      2887      2890      2921      2926
      2888      2887      2883      2929      2888      2887      2890      2891
      2888      2887      2890      2921      2889      2887      2883      2929
      2889      2887      2890      2891      2889      2887      2890      2921
      2890      2887      2883      2929      2890      2891      2893      2894
      2890      2891      2893      2895      2890      2891      2893      2896
      2890      2921      2919      2896      2890      2921      2919      2916
      2890      2921      2919      2920      2890      2921      2922      2923
      2890      2921      2922      2924      2890      2921      2922      2925
      2890      2921      2926      2927      2890      2921      2926      2928
      2890      2921      2926      2929      2891      2890      2921      2919
      2891      2890      2921      2922      2891      2890      2921      2926
      2891      2893      2896      2897      2891      2893      2896      2898
      2891      2893      2896      2919      2892      2891      2890      2921
      2892      2891      2893      2894      2892      2891      2893      2895
      2892      2891      2893      2896      2893      2891      2890      2921
      2893      2896      2898      2899      2893      2896      2898      2900
      2893      2896      2898      2908      2893      2896      2919      2916
      2893      2896      2919      2920      2893      2896      2919      2921
      2894      2893      2896      2897      2894      2893      2896      2898
      2894      2893      2896      2919      2895      2893      2896      2897
      2895      2893      2896      2898      2895      2893      2896      2919
      2896      2898      2900      2901      2896      2898      2900      2902
      2896      2898      2900      2903      2896      2898      2908      2906
      2896      2898      2908      2909      2896      2898      2908      2913
      2896      2919      2916      2913      2896      2919      2916      2917
      2896      2919      2916      2918      2896      2919      2921      2922
      2896      2919      2921      2926      2897      2896      2898      2899
      2897      2896      2898      2900      2897      2896      2898      2908
      2897      2896      2919      2916      2897      2896      2919      2920
      2897      2896      2919      2921      2898      2896      2919      2916
      2898      2896      2919      2920      2898      2896      2919      2921
      2898      2900      2903      2904      2898      2900      2903      2905
      2898      2900      2903      2906      2898      2908      2906      2903
      2898      2908      2906      2907      2898      2908      2906      2932
      2898      2908      2909      2910      2898      2908      2909      2911
      2898      2908      2909      2912      2898      2908      2913      2914
      2898      2908      2913      2915      2898      2908      2913      2916
      2899      2898      2896      2919      2899      2898      2900      2901
      2899      2898      2900      2902      2899      2898      2900      2903
      2899      2898      2908      2906      2899      2898      2908      2909
      2899      2898      2908      2913      2900      2898      2896      2919
      2900      2898      2908      2906      2900      2898      2908      2909
      2900      2898      2908      2913      2900      2903      2906      2907
      2900      2903      2906      2908      2900      2903      2906      2932
      2901      2900      2898      2908      2901      2900      2903      2904
      2901      2900      2903      2905      2901      2900      2903      2906
      2902      2900      2898      2908      2902      2900      2903      2904
      2902      2900      2903      2905      2902      2900      2903      2906
      2903      2900      2898      2908      2903      2906      2908      2909
      2903      2906      2908      2913      2903      2906      2932      2933
      2903      2906      2932      2934      2903      2906      2932      2938
      2904      2903      2906      2907      2904      2903      2906      2908
      2904      2903      2906      2932      2905      2903      2906      2907
      2905      2903      2906      2908      2905      2903      2906      2932
      2906      2908      2909      2910      2906      2908      2909      2911
      2906      2908      2909      2912      2906      2908      2913      2914
      2906      2908      2913      2915      2906      2908      2913      2916
      2906      2932      2934      2935      2906      2932      2934      2936
      2906      2932      2934      2937      2906      2932      2938      2939
      2906      2932      2938      2940      2906      2932      2938      2941
      2907      2906      2908      2909      2907      2906      2908      2913
      2907      2906      2932      2933      2907      2906      2932      2934
      2907      2906      2932      2938      2908      2898      2896      2919
      2908      2906      2932      2933      2908      2906      2932      2934
      2908      2906      2932      2938      2908      2913      2916      2917
      2908      2913      2916      2918      2908      2913      2916      2919
      2909      2908      2906      2932      2909      2908      2913      2914
      2909      2908      2913      2915      2909      2908      2913      2916
      2910      2909      2908      2913      2911      2909      2908      2913
      2912      2909      2908      2913      2913      2908      2906      2932
      2913      2916      2919      2920      2913      2916      2919      2921
      2914      2913      2916      2917      2914      2913      2916      2918
      2914      2913      2916      2919      2915      2913      2916      2917
      2915      2913      2916      2918      2915      2913      2916      2919
      2916      2919      2921      2922      2916      2919      2921      2926
      2917      2916      2919      2920      2917      2916      2919      2921
      2918      2916      2919      2920      2918      2916      2919      2921
      2919      2921      2922      2923      2919      2921      2922      2924
      2919      2921      2922      2925      2919      2921      2926      2927
      2919      2921      2926      2928      2919      2921      2926      2929
      2920      2919      2921      2922      2920      2919      2921      2926
      2921      2926      2929      2930      2921      2926      2929      2931
      2922      2921      2926      2927      2922      2921      2926      2928
      2922      2921      2926      2929      2923      2922      2921      2926
      2924      2922      2921      2926      2925      2922      2921      2926
      2927      2926      2929      2930      2927      2926      2929      2931
      2928      2926      2929      2930      2928      2926      2929      2931
      2932      2938      2941      2942      2932      2938      2941      2943
      2932      2938      2941      2944      2933      2932      2934      2935
      2933      2932      2934      2936      2933      2932      2934      2937
      2933      2932      2938      2939      2933      2932      2938      2940
      2933      2932      2938      2941      2934      2932      2938      2939
      2934      2932      2938      2940      2934      2932      2938      2941
      2935      2934      2932      2938      2936      2934      2932      2938
      2937      2934      2932      2938      2938      2941      2944      2945
      2938      2941      2944      2946      2938      2941      2944      2947
      2939      2938      2941      2942      2939      2938      2941      2943
      2939      2938      2941      2944      2940      2938      2941      2942
      2940      2938      2941      2943      2940      2938      2941      2944
      2941      2944      2947      2948      2941      2944      2947      2949
      2941      2944      2947      2953      2942      2941      2944      2945
      2942      2941      2944      2946      2942      2941      2944      2947
      2943      2941      2944      2945      2943      2941      2944      2946
      2943      2941      2944      2947      2944      2947      2949      2950
      2944      2947      2949      2951      2944      2947      2949      2952
      2944      2947      2953      2954      2944      2947      2953      2955
      2944      2947      2953      2956      2945      2944      2947      2948
      2945      2944      2947      2949      2945      2944      2947      2953
      2946      2944      2947      2948      2946      2944      2947      2949
      2946      2944      2947      2953      2948      2947      2949      2950
      2948      2947      2949      2951      2948      2947      2949      2952
      2948      2947      2953      2954      2948      2947      2953      2955
      2948      2947      2953      2956      2949      2947      2953      2954
      2949      2947      2953      2955      2949      2947      2953      2956
      2950      2949      2947      2953      2951      2949      2947      2953
      2952      2949      2947      2953     10188     10201     10204     10205
     10188     10201     10204     10206     10188     10201     10204     10211
     10189     10188     10193     10194     10189     10188     10193     10195
     10189     10188     10193     10196     10189     10188     10197     10198
     10189     10188     10197     10199     10189     10188     10197     10200
     10189     10188     10201     10202     10189     10188     10201     10203
     10189     10188     10201     10204     10190     10189     10188     10193
     10190     10189     10188     10197     10190     10189     10188     10201
     10191     10189     10188     10193     10191     10189     10188     10197
     10191     10189     10188     10201     10192     10189     10188     10193
     10192     10189     10188     10197     10192     10189     10188     10201
     10193     10188     10197     10198     10193     10188     10197     10199
     10193     10188     10197     10200     10193     10188     10201     10202
     10193     10188     10201     10203     10193     10188     10201     10204
     10194     10193     10188     10197     10194     10193     10188     10201
     10195     10193     10188     10197     10195     10193     10188     10201
     10196     10193     10188     10197     10196     10193     10188     10201
     10197     10188     10201     10202     10197     10188     10201     10203
     10197     10188     10201     10204     10198     10197     10188     10201
     10199     10197     10188     10201     10200     10197     10188     10201
     10201     10204     10211     10207     10202     10201     10204     10205
     10202     10201     10204     10206     10202     10201     10204     10211
     10203     10201     10204     10205     10203     10201     10204     10206
     10203     10201     10204     10211     10204     10211     10207     10208
     10204     10211     10207     10209     10204     10211     10207     10210
     10205     10204     10211     10207     10206     10204     10211     10207
     10207     10210     10212     10213     10207     10210     10212     10214
     10207     10210     10212     10217     10208     10207     10210     10212
     10209     10207     10210     10212     10210     10212     10217     10215
     10210     10212     10217     10218     10210     10212     10217     10219
     10211     10207     10210     10212     10212     10217     10215     10216
     10212     10217     10215     10267     10212     10217     10219     10220
     10212     10217     10219     10221     10212     10217     10219     10223
     10213     10212     10217     10215     10213     10212     10217     10218
     10213     10212     10217     10219     10214     10212     10217     10215
     10214     10212     10217     10218     10214     10212     10217     10219
     10215     10217     10219     10220     10215     10217     10219     10221
     10215     10217     10219     10223     10215     10267     10269     10270
     10215     10267     10269     10271     10215     10267     10269     10272
     10216     10215     10217     10218     10216     10215     10217     10219
     10216     10215     10267     10268     10216     10215     10267     10269
     10217     10215     10267     10268     10217     10215     10267     10269
     10217     10219     10221     10222     10217     10219     10223     10224
     10217     10219     10223     10225     10218     10217     10215     10267
     10218     10217     10219     10220     10218     10217     10219     10221
     10218     10217     10219     10223     10219     10217     10215     10267
     10219     10223     10225     10226     10219     10223     10225     10227
     10220     10219     10221     10222     10220     10219     10223     10224
     10220     10219     10223     10225     10221     10219     10223     10224
     10221     10219     10223     10225     10222     10221     10219     10223
     10223     10225     10227     10228     10223     10225     10227     10229
     10223     10225     10227     10230     10224     10223     10225     10226
     10224     10223     10225     10227     10225     10227     10230     10231
     10225     10227     10230     10232     10225     10227     10230     10233
     10226     10225     10227     10228     10226     10225     10227     10229
     10226     10225     10227     10230     10227     10230     10233     10234
     10227     10230     10233     10235     10227     10230     10233     10236
     10228     10227     10230     10231     10228     10227     10230     10232
     10228     10227     10230     10233     10229     10227     10230     10231
     10229     10227     10230     10232     10229     10227     10230     10233
     10230     10233     10236     10237     10230     10233     10236     10238
     10230     10233     10236     10239     10231     10230     10233     10234
     10231     10230     10233     10235     10231     10230     10233     10236
     10232     10230     10233     10234     10232     10230     10233     10235
     10232     10230     10233     10236     10233     10236     10239     10240
     10233     10236     10239     10241     10233     10236     10239     10242
     10234     10233     10236     10237     10234     10233     10236     10238
     10234     10233     10236     10239     10235     10233     10236     10237
     10235     10233     10236     10238     10235     10233     10236     10239
     10236     10239     10242     10243     10236     10239     10242     10244
     10236     10239     10242     10245     10237     10236     10239     10240
     10237     10236     10239     10241     10237     10236     10239     10242
     10238     10236     10239     10240     10238     10236     10239     10241
     10238     10236     10239     10242     10239     10242     10245     10246
     10239     10242     10245     10247     10239     10242     10245     10248
     10240     10239     10242     10243     10240     10239     10242     10244
     10240     10239     10242     10245     10241     10239     10242     10243
     10241     10239     10242     10244     10241     10239     10242     10245
     10242     10245     10248     10249     10242     10245     10248     10250
     10242     10245     10248     10251     10243     10242     10245     10246
     10243     10242     10245     10247     10243     10242     10245     10248
     10244     10242     10245     10246     10244     10242     10245     10247
     10244     10242     10245     10248     10245     10248     10251     10252
     10245     10248     10251     10253     10245     10248     10251     10254
     10246     10245     10248     10249     10246     10245     10248     10250
     10246     10245     10248     10251     10247     10245     10248     10249
     10247     10245     10248     10250     10247     10245     10248     10251
     10248     10251     10254     10255     10248     10251     10254     10256
     10248     10251     10254     10257     10249     10248     10251     10252
     10249     10248     10251     10253     10249     10248     10251     10254
     10250     10248     10251     10252     10250     10248     10251     10253
     10250     10248     10251     10254     10251     10254     10257     10258
     10251     10254     10257     10259     10251     10254     10257     10260
     10252     10251     10254     10255     10252     10251     10254     10256
     10252     10251     10254     10257     10253     10251     10254     10255
     10253     10251     10254     10256     10253     10251     10254     10257
     10254     10257     10260     10261     10254     10257     10260     10262
     10254     10257     10260     10263     10255     10254     10257     10258
     10255     10254     10257     10259     10255     10254     10257     10260
     10256     10254     10257     10258     10256     10254     10257     10259
     10256     10254     10257     10260     10257     10260     10263     10264
     10257     10260     10263     10265     10257     10260     10263     10266
     10258     10257     10260     10261     10258     10257     10260     10262
     10258     10257     10260     10263     10259     10257     10260     10261
     10259     10257     10260     10262     10259     10257     10260     10263
     10261     10260     10263     10264     10261     10260     10263     10265
     10261     10260     10263     10266     10262     10260     10263     10264
     10262     10260     10263     10265     10262     10260     10263     10266
     10267     10269     10272     10273     10267     10269     10272     10274
     10267     10269     10272     10275     10268     10267     10269     10270
     10268     10267     10269     10271     10268     10267     10269     10272
     10269     10272     10275     10276     10269     10272     10275     10277
     10269     10272     10275     10278     10270     10269     10272     10273
     10270     10269     10272     10274     10270     10269     10272     10275
     10271     10269     10272     10273     10271     10269     10272     10274
     10271     10269     10272     10275     10272     10275     10278     10279
     10272     10275     10278     10280     10272     10275     10278     10281
     10273     10272     10275     10276     10273     10272     10275     10277
     10273     10272     10275     10278     10274     10272     10275     10276
     10274     10272     10275     10277     10274     10272     10275     10278
     10275     10278     10281     10282     10275     10278     10281     10283
     10275     10278     10281     10284     10276     10275     10278     10279
     10276     10275     10278     10280     10276     10275     10278     10281
     10277     10275     10278     10279     10277     10275     10278     10280
     10277     10275     10278     10281     10278     10281     10284     10285
     10278     10281     10284     10286     10278     10281     10284     10287
     10279     10278     10281     10282     10279     10278     10281     10283
     10279     10278     10281     10284     10280     10278     10281     10282
     10280     10278     10281     10283     10280     10278     10281     10284
     10281     10284     10287     10288     10281     10284     10287     10289
     10281     10284     10287     10290     10282     10281     10284     10285
     10282     10281     10284     10286     10282     10281     10284     10287
     10283     10281     10284     10285     10283     10281     10284     10286
     10283     10281     10284     10287     10284     10287     10290     10291
     10284     10287     10290     10292     10285     10284     10287     10288
     10285     10284     10287     10289     10285     10284     10287     10290
     10286     10284     10287     10288     10286     10284     10287     10289
     10286     10284     10287     10290     10287     10290     10292     10293
     10287     10290     10292     10294     10288     10287     10290     10291
     10288     10287     10290     10292     10289     10287     10290     10291
     10289     10287     10290     10292     10290     10292     10294     10295
     10290     10292     10294     10296     10290     10292     10294     10297
     10291     10290     10292     10293     10291     10290     10292     10294
     10292     10294     10297     10298     10292     10294     10297     10299
     10292     10294     10297     10300     10293     10292     10294     10295
     10293     10292     10294     10296     10293     10292     10294     10297
     10294     10297     10300     10301     10294     10297     10300     10302
     10294     10297     10300     10303     10295     10294     10297     10298
     10295     10294     10297     10299     10295     10294     10297     10300
     10296     10294     10297     10298     10296     10294     10297     10299
     10296     10294     10297     10300     10297     10300     10303     10304
     10297     10300     10303     10305     10297     10300     10303     10306
     10298     10297     10300     10301     10298     10297     10300     10302
     10298     10297     10300     10303     10299     10297     10300     10301
     10299     10297     10300     10302     10299     10297     10300     10303
     10300     10303     10306     10307     10300     10303     10306     10308
     10300     10303     10306     10309     10301     10300     10303     10304
     10301     10300     10303     10305     10301     10300     10303     10306
     10302     10300     10303     10304     10302     10300     10303     10305
     10302     10300     10303     10306     10303     10306     10309     10310
     10303     10306     10309     10311     10303     10306     10309     10312
     10304     10303     10306     10307     10304     10303     10306     10308
     10304     10303     10306     10309     10305     10303     10306     10307
     10305     10303     10306     10308     10305     10303     10306     10309
     10306     10309     10312     10313     10306     10309     10312     10314
     10306     10309     10312     10315     10307     10306     10309     10310
     10307     10306     10309     10311     10307     10306     10309     10312
     10308     10306     10309     10310     10308     10306     10309     10311
     10308     10306     10309     10312     10309     10312     10315     10316
     10309     10312     10315     10317     10309     10312     10315     10318
     10310     10309     10312     10313     10310     10309     10312     10314
     10310     10309     10312     10315     10311     10309     10312     10313
     10311     10309     10312     10314     10311     10309     10312     10315
     10313     10312     10315     10316     10313     10312     10315     10317
     10313     10312     10315     10318     10314     10312     10315     10316
     10314     10312     10315     10317     10314     10312     10315     10318
      6936      6940      6943      6944      6936      6940      6943      6945
      6936      6940      6943      6949      6937      6936      6940      6941
      6937      6936      6940      6942      6937      6936      6940      6943
      6938      6936      6940      6941      6938      6936      6940      6942
      6938      6936      6940      6943      6939      6936      6940      6941
      6939      6936      6940      6942      6939      6936      6940      6943
      6940      6943      6949      6946      6941      6940      6943      6944
      6941      6940      6943      6945      6941      6940      6943      6949
      6942      6940      6943      6944      6942      6940      6943      6945
      6942      6940      6943      6949      6943      6949      6946      6947
      6943      6949      6946      6948      6943      6949      6946      6950
      6944      6943      6949      6946      6945      6943      6949      6946
      6946      6950      6951      6952      6946      6950      6951      6953
      6946      6950      6951      6954      6947      6946      6950      6951
      6948      6946      6950      6951      6949      6946      6950      6951
      6950      6951      6954      6955      6950      6951      6954      6956
      6950      6951      6954      6962      6951      6954      6956      6957
      6951      6954      6962      6963      6951      6954      6962      6964
      6951      6954      6962      6965      6952      6951      6954      6955
      6952      6951      6954      6956      6952      6951      6954      6962
      6953      6951      6954      6955      6953      6951      6954      6956
      6953      6951      6954      6962      6954      6956      6957      6958
      6954      6956      6957      6959      6954      6962      6965      6966
      6955      6954      6956      6957      6955      6954      6962      6963
      6955      6954      6962      6964      6955      6954      6962      6965
      6956      6954      6962      6963      6956      6954      6962      6964
      6956      6954      6962      6965      6956      6957      6959      6960
      6956      6957      6959      6961      6956      6957      6959      6971
      6957      6956      6954      6962      6957      6959      6971      6972
      6957      6959      6971      6973      6957      6959      6971      6974
      6958      6957      6959      6960      6958      6957      6959      6961
      6958      6957      6959      6971      6959      6971      6974      6975
      6959      6971      6974      6976      6959      6971      6974      6977
      6960      6959      6971      6972      6960      6959      6971      6973
      6960      6959      6971      6974      6961      6959      6971      6972
      6961      6959      6971      6973      6961      6959      6971      6974
      6962      6965      6966      6967      6962      6965      6966      6968
      6963      6962      6965      6966      6964      6962      6965      6966
      6965      6966      6968      6969      6965      6966      6968      6970
      6965      6966      6968      7018      6966      6968      7018      7019
      6966      6968      7018      7020      6966      6968      7018      7021
      6967      6966      6968      6969      6967      6966      6968      6970
      6967      6966      6968      7018      6968      7018      7021      7022
      6968      7018      7021      7023      6968      7018      7021      7024
      6969      6968      7018      7019      6969      6968      7018      7020
      6969      6968      7018      7021      6970      6968      7018      7019
      6970      6968      7018      7020      6970      6968      7018      7021
      6971      6974      6977      6978      6971      6974      6977      6979
      6971      6974      6977      6980      6972      6971      6974      6975
      6972      6971      6974      6976      6972      6971      6974      6977
      6973      6971      6974      6975      6973      6971      6974      6976
      6973      6971      6974      6977      6974      6977      6980      6981
      6974      6977      6980      6982      6974      6977      6980      6983
      6975      6974      6977      6978      6975      6974      6977      6979
      6975      6974      6977      6980      6976      6974      6977      6978
      6976      6974      6977      6979      6976      6974      6977      6980
      6977      6980      6983      6984      6977      6980      6983      6985
      6977      6980      6983      6986      6978      6977      6980      6981
      6978      6977      6980      6982      6978      6977      6980      6983
      6979      6977      6980      6981      6979      6977      6980      6982
      6979      6977      6980      6983      6980      6983      6986      6987
      6980      6983      6986      6988      6980      6983      6986      6989
      6981      6980      6983      6984      6981      6980      6983      6985
      6981      6980      6983      6986      6982      6980      6983      6984
      6982      6980      6983      6985      6982      6980      6983      6986
      6983      6986      6989      6990      6983      6986      6989      6991
      6984      6983      6986      6987      6984      6983      6986      6988
      6984      6983      6986      6989      6985      6983      6986      6987
      6985      6983      6986      6988      6985      6983      6986      6989
      6986      6989      6991      6992      6986      6989      6991      6993
      6987      6986      6989      6990      6987      6986      6989      6991
      6988      6986      6989      6990      6988      6986      6989      6991
      6989      6991      6993      6994      6989      6991      6993      6995
      6989      6991      6993      6996      6990      6989      6991      6992
      6990      6989      6991      6993      6991      6993      6996      6997
      6991      6993      6996      6998      6991      6993      6996      6999
      6992      6991      6993      6994      6992      6991      6993      6995
      6992      6991      6993      6996      6993      6996      6999      7000
      6993      6996      6999      7001      6993      6996      6999      7002
      6994      6993      6996      6997      6994      6993      6996      6998
      6994      6993      6996      6999      6995      6993      6996      6997
      6995      6993      6996      6998      6995      6993      6996      6999
      6996      6999      7002      7003      6996      6999      7002      7004
      6996      6999      7002      7005      6997      6996      6999      7000
      6997      6996      6999      7001      6997      6996      6999      7002
      6998      6996      6999      7000      6998      6996      6999      7001
      6998      6996      6999      7002      6999      7002      7005      7006
      6999      7002      7005      7007      6999      7002      7005      7008
      7000      6999      7002      7003      7000      6999      7002      7004
      7000      6999      7002      7005      7001      6999      7002      7003
      7001      6999      7002      7004      7001      6999      7002      7005
      7002      7005      7008      7009      7002      7005      7008      7010
      7002      7005      7008      7011      7003      7002      7005      7006
      7003      7002      7005      7007      7003      7002      7005      7008
      7004      7002      7005      7006      7004      7002      7005      7007
      7004      7002      7005      7008      7005      7008      7011      7012
      7005      7008      7011      7013      7005      7008      7011      7014
      7006      7005      7008      7009      7006      7005      7008      7010
      7006      7005      7008      7011      7007      7005      7008      7009
      7007      7005      7008      7010      7007      7005      7008      7011
      7008      7011      7014      7015      7008      7011      7014      7016
      7008      7011      7014      7017      7009      7008      7011      7012
      7009      7008      7011      7013      7009      7008      7011      7014
      7010      7008      7011      7012      7010      7008      7011      7013
      7010      7008      7011      7014      7012      7011      7014      7015
      7012      7011      7014      7016      7012      7011      7014      7017
      7013      7011      7014      7015      7013      7011      7014      7016
      7013      7011      7014      7017      7018      7021      7024      7025
      7018      7021      7024      7026      7018      7021      7024      7027
      7019      7018      7021      7022      7019      7018      7021      7023
      7019      7018      7021      7024      7020      7018      7021      7022
      7020      7018      7021      7023      7020      7018      7021      7024
      7021      7024      7027      7028      7021      7024      7027      7029
      7021      7024      7027      7030      7022      7021      7024      7025
      7022      7021      7024      7026      7022      7021      7024      7027
      7023      7021      7024      7025      7023      7021      7024      7026
      7023      7021      7024      7027      7024      7027      7030      7031
      7024      7027      7030      7032      7024      7027      7030      7033
      7025      7024      7027      7028      7025      7024      7027      7029
      7025      7024      7027      7030      7026      7024      7027      7028
      7026      7024      7027      7029      7026      7024      7027      7030
      7027      7030      7033      7034      7027      7030      7033      7035
      7027      7030      7033      7036      7028      7027      7030      7031
      7028      7027      7030      7032      7028      7027      7030      7033
      7029      7027      7030      7031      7029      7027      7030      7032
      7029      7027      7030      7033      7030      7033      7036      7037
      7030      7033      7036      7038      7030      7033      7036      7039
      7031      7030      7033      7034      7031      7030      7033      7035
      7031      7030      7033      7036      7032      7030      7033      7034
      7032      7030      7033      7035      7032      7030      7033      7036
      7033      7036      7039      7040      7033      7036      7039      7041
      7033      7036      7039      7042      7034      7033      7036      7037
      7034      7033      7036      7038      7034      7033      7036      7039
      7035      7033      7036      7037      7035      7033      7036      7038
      7035      7033      7036      7039      7036      7039      7042      7043
      7036      7039      7042      7044      7036      7039      7042      7045
      7037      7036      7039      7040      7037      7036      7039      7041
      7037      7036      7039      7042      7038      7036      7039      7040
      7038      7036      7039      7041      7038      7036      7039      7042
      7039      7042      7045      7046      7039      7042      7045      7047
      7039      7042      7045      7048      7040      7039      7042      7043
      7040      7039      7042      7044      7040      7039      7042      7045
      7041      7039      7042      7043      7041      7039      7042      7044
      7041      7039      7042      7045      7042      7045      7048      7049
      7042      7045      7048      7050      7042      7045      7048      7051
      7043      7042      7045      7046      7043      7042      7045      7047
      7043      7042      7045      7048      7044      7042      7045      7046
      7044      7042      7045      7047      7044      7042      7045      7048
      7045      7048      7051      7052      7045      7048      7051      7053
      7045      7048      7051      7054      7046      7045      7048      7049
      7046      7045      7048      7050      7046      7045      7048      7051
      7047      7045      7048      7049      7047      7045      7048      7050
      7047      7045      7048      7051      7048      7051      7054      7055
      7048      7051      7054      7056      7048      7051      7054      7057
      7049      7048      7051      7052      7049      7048      7051      7053
      7049      7048      7051      7054      7050      7048      7051      7052
      7050      7048      7051      7053      7050      7048      7051      7054
      7051      7054      7057      7058      7051      7054      7057      7059
      7051      7054      7057      7060      7052      7051      7054      7055
      7052      7051      7054      7056      7052      7051      7054      7057
      7053      7051      7054      7055      7053      7051      7054      7056
      7053      7051      7054      7057      7054      7057      7060      7061
      7054      7057      7060      7062      7054      7057      7060      7063
      7055      7054      7057      7058      7055      7054      7057      7059
      7055      7054      7057      7060      7056      7054      7057      7058
      7056      7054      7057      7059      7056      7054      7057      7060
      7057      7060      7063      7064      7057      7060      7063      7065
      7057      7060      7063      7066      7058      7057      7060      7061
      7058      7057      7060      7062      7058      7057      7060      7063
      7059      7057      7060      7061      7059      7057      7060      7062
      7059      7057      7060      7063      7061      7060      7063      7064
      7061      7060      7063      7065      7061      7060      7063      7066
      7062      7060      7063      7064      7062      7060      7063      7065
      7062      7060      7063      7066     10319     10332     10335     10336
     10319     10332     10335     10337     10319     10332     10335     10342
     10320     10319     10324     10325     10320     10319     10324     10326
     10320     10319     10324     10327     10320     10319     10328     10329
     10320     10319     10328     10330     10320     10319     10328     10331
     10320     10319     10332     10333     10320     10319     10332     10334
     10320     10319     10332     10335     10321     10320     10319     10324
     10321     10320     10319     10328     10321     10320     10319     10332
     10322     10320     10319     10324     10322     10320     10319     10328
     10322     10320     10319     10332     10323     10320     10319     10324
     10323     10320     10319     10328     10323     10320     10319     10332
     10324     10319     10328     10329     10324     10319     10328     10330
     10324     10319     10328     10331     10324     10319     10332     10333
     10324     10319     10332     10334     10324     10319     10332     10335
     10325     10324     10319     10328     10325     10324     10319     10332
     10326     10324     10319     10328     10326     10324     10319     10332
     10327     10324     10319     10328     10327     10324     10319     10332
     10328     10319     10332     10333     10328     10319     10332     10334
     10328     10319     10332     10335     10329     10328     10319     10332
     10330     10328     10319     10332     10331     10328     10319     10332
     10332     10335     10342     10338     10333     10332     10335     10336
     10333     10332     10335     10337     10333     10332     10335     10342
     10334     10332     10335     10336     10334     10332     10335     10337
     10334     10332     10335     10342     10335     10342     10338     10339
     10335     10342     10338     10340     10335     10342     10338     10341
     10336     10335     10342     10338     10337     10335     10342     10338
     10338     10341     10343     10344     10338     10341     10343     10345
     10338     10341     10343     10348     10339     10338     10341     10343
     10340     10338     10341     10343     10341     10343     10348     10346
     10341     10343     10348     10349     10341     10343     10348     10350
     10342     10338     10341     10343     10343     10348     10346     10347
     10343     10348     10346     10398     10343     10348     10350     10351
     10343     10348     10350     10352     10343     10348     10350     10354
     10344     10343     10348     10346     10344     10343     10348     10349
     10344     10343     10348     10350     10345     10343     10348     10346
     10345     10343     10348     10349     10345     10343     10348     10350
     10346     10348     10350     10351     10346     10348     10350     10352
     10346     10348     10350     10354     10346     10398     10400     10401
     10346     10398     10400     10402     10346     10398     10400     10403
     10347     10346     10348     10349     10347     10346     10348     10350
     10347     10346     10398     10399     10347     10346     10398     10400
     10348     10346     10398     10399     10348     10346     10398     10400
     10348     10350     10352     10353     10348     10350     10354     10355
     10348     10350     10354     10356     10349     10348     10346     10398
     10349     10348     10350     10351     10349     10348     10350     10352
     10349     10348     10350     10354     10350     10348     10346     10398
     10350     10354     10356     10357     10350     10354     10356     10358
     10351     10350     10352     10353     10351     10350     10354     10355
     10351     10350     10354     10356     10352     10350     10354     10355
     10352     10350     10354     10356     10353     10352     10350     10354
     10354     10356     10358     10359     10354     10356     10358     10360
     10354     10356     10358     10361     10355     10354     10356     10357
     10355     10354     10356     10358     10356     10358     10361     10362
     10356     10358     10361     10363     10356     10358     10361     10364
     10357     10356     10358     10359     10357     10356     10358     10360
     10357     10356     10358     10361     10358     10361     10364     10365
     10358     10361     10364     10366     10358     10361     10364     10367
     10359     10358     10361     10362     10359     10358     10361     10363
     10359     10358     10361     10364     10360     10358     10361     10362
     10360     10358     10361     10363     10360     10358     10361     10364
     10361     10364     10367     10368     10361     10364     10367     10369
     10361     10364     10367     10370     10362     10361     10364     10365
     10362     10361     10364     10366     10362     10361     10364     10367
     10363     10361     10364     10365     10363     10361     10364     10366
     10363     10361     10364     10367     10364     10367     10370     10371
     10364     10367     10370     10372     10364     10367     10370     10373
     10365     10364     10367     10368     10365     10364     10367     10369
     10365     10364     10367     10370     10366     10364     10367     10368
     10366     10364     10367     10369     10366     10364     10367     10370
     10367     10370     10373     10374     10367     10370     10373     10375
     10367     10370     10373     10376     10368     10367     10370     10371
     10368     10367     10370     10372     10368     10367     10370     10373
     10369     10367     10370     10371     10369     10367     10370     10372
     10369     10367     10370     10373     10370     10373     10376     10377
     10370     10373     10376     10378     10370     10373     10376     10379
     10371     10370     10373     10374     10371     10370     10373     10375
     10371     10370     10373     10376     10372     10370     10373     10374
     10372     10370     10373     10375     10372     10370     10373     10376
     10373     10376     10379     10380     10373     10376     10379     10381
     10373     10376     10379     10382     10374     10373     10376     10377
     10374     10373     10376     10378     10374     10373     10376     10379
     10375     10373     10376     10377     10375     10373     10376     10378
     10375     10373     10376     10379     10376     10379     10382     10383
     10376     10379     10382     10384     10376     10379     10382     10385
     10377     10376     10379     10380     10377     10376     10379     10381
     10377     10376     10379     10382     10378     10376     10379     10380
     10378     10376     10379     10381     10378     10376     10379     10382
     10379     10382     10385     10386     10379     10382     10385     10387
     10379     10382     10385     10388     10380     10379     10382     10383
     10380     10379     10382     10384     10380     10379     10382     10385
     10381     10379     10382     10383     10381     10379     10382     10384
     10381     10379     10382     10385     10382     10385     10388     10389
     10382     10385     10388     10390     10382     10385     10388     10391
     10383     10382     10385     10386     10383     10382     10385     10387
     10383     10382     10385     10388     10384     10382     10385     10386
     10384     10382     10385     10387     10384     10382     10385     10388
     10385     10388     10391     10392     10385     10388     10391     10393
     10385     10388     10391     10394     10386     10385     10388     10389
     10386     10385     10388     10390     10386     10385     10388     10391
     10387     10385     10388     10389     10387     10385     10388     10390
     10387     10385     10388     10391     10388     10391     10394     10395
     10388     10391     10394     10396     10388     10391     10394     10397
     10389     10388     10391     10392     10389     10388     10391     10393
     10389     10388     10391     10394     10390     10388     10391     10392
     10390     10388     10391     10393     10390     10388     10391     10394
     10392     10391     10394     10395     10392     10391     10394     10396
     10392     10391     10394     10397     10393     10391     10394     10395
     10393     10391     10394     10396     10393     10391     10394     10397
     10398     10400     10403     10404     10398     10400     10403     10405
     10398     10400     10403     10406     10399     10398     10400     10401
     10399     10398     10400     10402     10399     10398     10400     10403
     10400     10403     10406     10407     10400     10403     10406     10408
     10400     10403     10406     10409     10401     10400     10403     10404
     10401     10400     10403     10405     10401     10400     10403     10406
     10402     10400     10403     10404     10402     10400     10403     10405
     10402     10400     10403     10406     10403     10406     10409     10410
     10403     10406     10409     10411     10403     10406     10409     10412
     10404     10403     10406     10407     10404     10403     10406     10408
     10404     10403     10406     10409     10405     10403     10406     10407
     10405     10403     10406     10408     10405     10403     10406     10409
     10406     10409     10412     10413     10406     10409     10412     10414
     10406     10409     10412     10415     10407     10406     10409     10410
     10407     10406     10409     10411     10407     10406     10409     10412
     10408     10406     10409     10410     10408     10406     10409     10411
     10408     10406     10409     10412     10409     10412     10415     10416
     10409     10412     10415     10417     10409     10412     10415     10418
     10410     10409     10412     10413     10410     10409     10412     10414
     10410     10409     10412     10415     10411     10409     10412     10413
     10411     10409     10412     10414     10411     10409     10412     10415
     10412     10415     10418     10419     10412     10415     10418     10420
     10412     10415     10418     10421     10413     10412     10415     10416
     10413     10412     10415     10417     10413     10412     10415     10418
     10414     10412     10415     10416     10414     10412     10415     10417
     10414     10412     10415     10418     10415     10418     10421     10422
     10415     10418     10421     10423     10416     10415     10418     10419
     10416     10415     10418     10420     10416     10415     10418     10421
     10417     10415     10418     10419     10417     10415     10418     10420
     10417     10415     10418     10421     10418     10421     10423     10424
     10418     10421     10423     10425     10419     10418     10421     10422
     10419     10418     10421     10423     10420     10418     10421     10422
     10420     10418     10421     10423     10421     10423     10425     10426
     10421     10423     10425     10427     10421     10423     10425     10428
     10422     10421     10423     10424     10422     10421     10423     10425
     10423     10425     10428     10429     10423     10425     10428     10430
     10423     10425     10428     10431     10424     10423     10425     10426
     10424     10423     10425     10427     10424     10423     10425     10428
     10425     10428     10431     10432     10425     10428     10431     10433
     10425     10428     10431     10434     10426     10425     10428     10429
     10426     10425     10428     10430     10426     10425     10428     10431
     10427     10425     10428     10429     10427     10425     10428     10430
     10427     10425     10428     10431     10428     10431     10434     10435
     10428     10431     10434     10436     10428     10431     10434     10437
     10429     10428     10431     10432     10429     10428     10431     10433
     10429     10428     10431     10434     10430     10428     10431     10432
     10430     10428     10431     10433     10430     10428     10431     10434
     10431     10434     10437     10438     10431     10434     10437     10439
     10431     10434     10437     10440     10432     10431     10434     10435
     10432     10431     10434     10436     10432     10431     10434     10437
     10433     10431     10434     10435     10433     10431     10434     10436
     10433     10431     10434     10437     10434     10437     10440     10441
     10434     10437     10440     10442     10434     10437     10440     10443
     10435     10434     10437     10438     10435     10434     10437     10439
     10435     10434     10437     10440     10436     10434     10437     10438
     10436     10434     10437     10439     10436     10434     10437     10440
     10437     10440     10443     10444     10437     10440     10443     10445
     10437     10440     10443     10446     10438     10437     10440     10441
     10438     10437     10440     10442     10438     10437     10440     10443
     10439     10437     10440     10441     10439     10437     10440     10442
     10439     10437     10440     10443     10440     10443     10446     10447
     10440     10443     10446     10448     10440     10443     10446     10449
     10441     10440     10443     10444     10441     10440     10443     10445
     10441     10440     10443     10446     10442     10440     10443     10444
     10442     10440     10443     10445     10442     10440     10443     10446
     10444     10443     10446     10447     10444     10443     10446     10448
     10444     10443     10446     10449     10445     10443     10446     10447
     10445     10443     10446     10448     10445     10443     10446     10449
      2957      2961      2964      2965      2957      2961      2964      2995
      2957      3003      3000      2995      2957      3003      3000      3001
      2957      3003      3000      3002      2958      2957      2959      2960
      2958      2957      2961      2962      2958      2957      2961      2963
      2958      2957      2961      2964      2958      2957      3003      3000
      2958      2957      3003      3004      2958      2957      3003      3005
      2959      2957      2961      2962      2959      2957      2961      2963
      2959      2957      2961      2964      2959      2957      3003      3000
      2959      2957      3003      3004      2959      2957      3003      3005
      2960      2959      2957      2961      2960      2959      2957      3003
      2961      2957      3003      3000      2961      2957      3003      3004
      2961      2957      3003      3005      2961      2964      2965      2966
      2961      2964      2965      2967      2961      2964      2995      2993
      2961      2964      2995      2996      2961      2964      2995      3000
      2962      2961      2957      3003      2962      2961      2964      2965
      2962      2961      2964      2995      2963      2961      2957      3003
      2963      2961      2964      2965      2963      2961      2964      2995
      2964      2961      2957      3003      2964      2965      2967      2968
      2964      2965      2967      2969      2964      2965      2967      2970
      2964      2995      2993      2970      2964      2995      2993      2990
      2964      2995      2993      2994      2964      2995      2996      2997
      2964      2995      2996      2998      2964      2995      2996      2999
      2964      2995      3000      3001      2964      2995      3000      3002
      2964      2995      3000      3003      2965      2964      2995      2993
      2965      2964      2995      2996      2965      2964      2995      3000
      2965      2967      2970      2971      2965      2967      2970      2972
      2965      2967      2970      2993      2966      2965      2964      2995
      2966      2965      2967      2968      2966      2965      2967      2969
      2966      2965      2967      2970      2967      2965      2964      2995
      2967      2970      2972      2973      2967      2970      2972      2974
      2967      2970      2972      2982      2967      2970      2993      2990
      2967      2970      2993      2994      2967      2970      2993      2995
      2968      2967      2970      2971      2968      2967      2970      2972
      2968      2967      2970      2993      2969      2967      2970      2971
      2969      2967      2970      2972      2969      2967      2970      2993
      2970      2972      2974      2975      2970      2972      2974      2976
      2970      2972      2974      2977      2970      2972      2982      2980
      2970      2972      2982      2983      2970      2972      2982      2987
      2970      2993      2990      2987      2970      2993      2990      2991
      2970      2993      2990      2992      2970      2993      2995      2996
      2970      2993      2995      3000      2971      2970      2972      2973
      2971      2970      2972      2974      2971      2970      2972      2982
      2971      2970      2993      2990      2971      2970      2993      2994
      2971      2970      2993      2995      2972      2970      2993      2990
      2972      2970      2993      2994      2972      2970      2993      2995
      2972      2974      2977      2978      2972      2974      2977      2979
      2972      2974      2977      2980      2972      2982      2980      2977
      2972      2982      2980      2981      2972      2982      2980      3006
      2972      2982      2983      2984      2972      2982      2983      2985
      2972      2982      2983      2986      2972      2982      2987      2988
      2972      2982      2987      2989      2972      2982      2987      2990
      2973      2972      2970      2993      2973      2972      2974      2975
      2973      2972      2974      2976      2973      2972      2974      2977
      2973      2972      2982      2980      2973      2972      2982      2983
      2973      2972      2982      2987      2974      2972      2970      2993
      2974      2972      2982      2980      2974      2972      2982      2983
      2974      2972      2982      2987      2974      2977      2980      2981
      2974      2977      2980      2982      2974      2977      2980      3006
      2975      2974      2972      2982      2975      2974      2977      2978
      2975      2974      2977      2979      2975      2974      2977      2980
      2976      2974      2972      2982      2976      2974      2977      2978
      2976      2974      2977      2979      2976      2974      2977      2980
      2977      2974      2972      2982      2977      2980      2982      2983
      2977      2980      2982      2987      2977      2980      3006      3007
      2977      2980      3006      3008      2977      2980      3006      3012
      2978      2977      2980      2981      2978      2977      2980      2982
      2978      2977      2980      3006      2979      2977      2980      2981
      2979      2977      2980      2982      2979      2977      2980      3006
      2980      2982      2983      2984      2980      2982      2983      2985
      2980      2982      2983      2986      2980      2982      2987      2988
      2980      2982      2987      2989      2980      2982      2987      2990
      2980      3006      3008      3009      2980      3006      3008      3010
      2980      3006      3008      3011      2980      3006      3012      3013
      2980      3006      3012      3014      2980      3006      3012      3015
      2981      2980      2982      2983      2981      2980      2982      2987
      2981      2980      3006      3007      2981      2980      3006      3008
      2981      2980      3006      3012      2982      2972      2970      2993
      2982      2980      3006      3007      2982      2980      3006      3008
      2982      2980      3006      3012      2982      2987      2990      2991
      2982      2987      2990      2992      2982      2987      2990      2993
      2983      2982      2980      3006      2983      2982      2987      2988
      2983      2982      2987      2989      2983      2982      2987      2990
      2984      2983      2982      2987      2985      2983      2982      2987
      2986      2983      2982      2987      2987      2982      2980      3006
      2987      2990      2993      2994      2987      2990      2993      2995
      2988      2987      2990      2991      2988      2987      2990      2992
      2988      2987      2990      2993      2989      2987      2990      2991
      2989      2987      2990      2992      2989      2987      2990      2993
      2990      2993      2995      2996      2990      2993      2995      3000
      2991      2990      2993      2994      2991      2990      2993      2995
      2992      2990      2993      2994      2992      2990      2993      2995
      2993      2995      2996      2997      2993      2995      2996      2998
      2993      2995      2996      2999      2993      2995      3000      3001
      2993      2995      3000      3002      2993      2995      3000      3003
      2994      2993      2995      2996      2994      2993      2995      3000
      2995      3000      3003      3004      2995      3000      3003      3005
      2996      2995      3000      3001      2996      2995      3000      3002
      2996      2995      3000      3003      2997      2996      2995      3000
      2998      2996      2995      3000      2999      2996      2995      3000
      3001      3000      3003      3004      3001      3000      3003      3005
      3002      3000      3003      3004      3002      3000      3003      3005
      3006      3012      3015      3016      3006      3012      3015      3017
      3006      3012      3015      3018      3007      3006      3008      3009
      3007      3006      3008      3010      3007      3006      3008      3011
      3007      3006      3012      3013      3007      3006      3012      3014
      3007      3006      3012      3015      3008      3006      3012      3013
      3008      3006      3012      3014      3008      3006      3012      3015
      3009      3008      3006      3012      3010      3008      3006      3012
      3011      3008      3006      3012      3012      3015      3018      3019
      3012      3015      3018      3020      3012      3015      3018      3021
      3013      3012      3015      3016      3013      3012      3015      3017
      3013      3012      3015      3018      3014      3012      3015      3016
      3014      3012      3015      3017      3014      3012      3015      3018
      3015      3018      3021      3022      3015      3018      3021      3023
      3015      3018      3021      3027      3016      3015      3018      3019
      3016      3015      3018      3020      3016      3015      3018      3021
      3017      3015      3018      3019      3017      3015      3018      3020
      3017      3015      3018      3021      3018      3021      3023      3024
      3018      3021      3023      3025      3018      3021      3023      3026
      3018      3021      3027      3028      3018      3021      3027      3029
      3018      3021      3027      3030      3019      3018      3021      3022
      3019      3018      3021      3023      3019      3018      3021      3027
      3020      3018      3021      3022      3020      3018      3021      3023
      3020      3018      3021      3027      3022      3021      3023      3024
      3022      3021      3023      3025      3022      3021      3023      3026
      3022      3021      3027      3028      3022      3021      3027      3029
      3022      3021      3027      3030      3023      3021      3027      3028
      3023      3021      3027      3029      3023      3021      3027      3030
      3024      3023      3021      3027      3025      3023      3021      3027
      3026      3023      3021      3027      3031      3035      3038      3039
      3031      3035      3038      3069      3031      3077      3074      3069
      3031      3077      3074      3075      3031      3077      3074      3076
      3032      3031      3033      3034      3032      3031      3035      3036
      3032      3031      3035      3037      3032      3031      3035      3038
      3032      3031      3077      3074      3032      3031      3077      3078
      3032      3031      3077      3079      3033      3031      3035      3036
      3033      3031      3035      3037      3033      3031      3035      3038
      3033      3031      3077      3074      3033      3031      3077      3078
      3033      3031      3077      3079      3034      3033      3031      3035
      3034      3033      3031      3077      3035      3031      3077      3074
      3035      3031      3077      3078      3035      3031      3077      3079
      3035      3038      3039      3040      3035      3038      3039      3041
      3035      3038      3069      3067      3035      3038      3069      3070
      3035      3038      3069      3074      3036      3035      3031      3077
      3036      3035      3038      3039      3036      3035      3038      3069
      3037      3035      3031      3077      3037      3035      3038      3039
      3037      3035      3038      3069      3038      3035      3031      3077
      3038      3039      3041      3042      3038      3039      3041      3043
      3038      3039      3041      3044      3038      3069      3067      3044
      3038      3069      3067      3064      3038      3069      3067      3068
      3038      3069      3070      3071      3038      3069      3070      3072
      3038      3069      3070      3073      3038      3069      3074      3075
      3038      3069      3074      3076      3038      3069      3074      3077
      3039      3038      3069      3067      3039      3038      3069      3070
      3039      3038      3069      3074      3039      3041      3044      3045
      3039      3041      3044      3046      3039      3041      3044      3067
      3040      3039      3038      3069      3040      3039      3041      3042
      3040      3039      3041      3043      3040      3039      3041      3044
      3041      3039      3038      3069      3041      3044      3046      3047
      3041      3044      3046      3048      3041      3044      3046      3056
      3041      3044      3067      3064      3041      3044      3067      3068
      3041      3044      3067      3069      3042      3041      3044      3045
      3042      3041      3044      3046      3042      3041      3044      3067
      3043      3041      3044      3045      3043      3041      3044      3046
      3043      3041      3044      3067      3044      3046      3048      3049
      3044      3046      3048      3050      3044      3046      3048      3051
      3044      3046      3056      3054      3044      3046      3056      3057
      3044      3046      3056      3061      3044      3067      3064      3061
      3044      3067      3064      3065      3044      3067      3064      3066
      3044      3067      3069      3070      3044      3067      3069      3074
      3045      3044      3046      3047      3045      3044      3046      3048
      3045      3044      3046      3056      3045      3044      3067      3064
      3045      3044      3067      3068      3045      3044      3067      3069
      3046      3044      3067      3064      3046      3044      3067      3068
      3046      3044      3067      3069      3046      3048      3051      3052
      3046      3048      3051      3053      3046      3048      3051      3054
      3046      3056      3054      3051      3046      3056      3054      3055
      3046      3056      3054      3080      3046      3056      3057      3058
      3046      3056      3057      3059      3046      3056      3057      3060
      3046      3056      3061      3062      3046      3056      3061      3063
      3046      3056      3061      3064      3047      3046      3044      3067
      3047      3046      3048      3049      3047      3046      3048      3050
      3047      3046      3048      3051      3047      3046      3056      3054
      3047      3046      3056      3057      3047      3046      3056      3061
      3048      3046      3044      3067      3048      3046      3056      3054
      3048      3046      3056      3057      3048      3046      3056      3061
      3048      3051      3054      3055      3048      3051      3054      3056
      3048      3051      3054      3080      3049      3048      3046      3056
      3049      3048      3051      3052      3049      3048      3051      3053
      3049      3048      3051      3054      3050      3048      3046      3056
      3050      3048      3051      3052      3050      3048      3051      3053
      3050      3048      3051      3054      3051      3048      3046      3056
      3051      3054      3056      3057      3051      3054      3056      3061
      3051      3054      3080      3081      3051      3054      3080      3082
      3051      3054      3080      3086      3052      3051      3054      3055
      3052      3051      3054      3056      3052      3051      3054      3080
      3053      3051      3054      3055      3053      3051      3054      3056
      3053      3051      3054      3080      3054      3056      3057      3058
      3054      3056      3057      3059      3054      3056      3057      3060
      3054      3056      3061      3062      3054      3056      3061      3063
      3054      3056      3061      3064      3054      3080      3082      3083
      3054      3080      3082      3084      3054      3080      3082      3085
      3054      3080      3086      3087      3054      3080      3086      3088
      3054      3080      3086      3089      3055      3054      3056      3057
      3055      3054      3056      3061      3055      3054      3080      3081
      3055      3054      3080      3082      3055      3054      3080      3086
      3056      3046      3044      3067      3056      3054      3080      3081
      3056      3054      3080      3082      3056      3054      3080      3086
      3056      3061      3064      3065      3056      3061      3064      3066
      3056      3061      3064      3067      3057      3056      3054      3080
      3057      3056      3061      3062      3057      3056      3061      3063
      3057      3056      3061      3064      3058      3057      3056      3061
      3059      3057      3056      3061      3060      3057      3056      3061
      3061      3056      3054      3080      3061      3064      3067      3068
      3061      3064      3067      3069      3062      3061      3064      3065
      3062      3061      3064      3066      3062      3061      3064      3067
      3063      3061      3064      3065      3063      3061      3064      3066
      3063      3061      3064      3067      3064      3067      3069      3070
      3064      3067      3069      3074      3065      3064      3067      3068
      3065      3064      3067      3069      3066      3064      3067      3068
      3066      3064      3067      3069      3067      3069      3070      3071
      3067      3069      3070      3072      3067      3069      3070      3073
      3067      3069      3074      3075      3067      3069      3074      3076
      3067      3069      3074      3077      3068      3067      3069      3070
      3068      3067      3069      3074      3069      3074      3077      3078
      3069      3074      3077      3079      3070      3069      3074      3075
      3070      3069      3074      3076      3070      3069      3074      3077
      3071      3070      3069      3074      3072      3070      3069      3074
      3073      3070      3069      3074      3075      3074      3077      3078
      3075      3074      3077      3079      3076      3074      3077      3078
      3076      3074      3077      3079      3080      3086      3089      3090
      3080      3086      3089      3091      3080      3086      3089      3092
      3081      3080      3082      3083      3081      3080      3082      3084
      3081      3080      3082      3085      3081      3080      3086      3087
      3081      3080      3086      3088      3081      3080      3086      3089
      3082      3080      3086      3087      3082      3080      3086      3088
      3082      3080      3086      3089      3083      3082      3080      3086
      3084      3082      3080      3086      3085      3082      3080      3086
      3086      3089      3092      3093      3086      3089      3092      3094
      3086      3089      3092      3095      3087      3086      3089      3090
      3087      3086      3089      3091      3087      3086      3089      3092
      3088      3086      3089      3090      3088      3086      3089      3091
      3088      3086      3089      3092      3089      3092      3095      3096
      3089      3092      3095      3097      3089      3092      3095      3101
      3090      3089      3092      3093      3090      3089      3092      3094
      3090      3089      3092      3095      3091      3089      3092      3093
      3091      3089      3092      3094      3091      3089      3092      3095
      3092      3095      3097      3098      3092      3095      3097      3099
      3092      3095      3097      3100      3092      3095      3101      3102
      3092      3095      3101      3103      3092      3095      3101      3104
      3093      3092      3095      3096      3093      3092      3095      3097
      3093      3092      3095      3101      3094      3092      3095      3096
      3094      3092      3095      3097      3094      3092      3095      3101
      3096      3095      3097      3098      3096      3095      3097      3099
      3096      3095      3097      3100      3096      3095      3101      3102
      3096      3095      3101      3103      3096      3095      3101      3104
      3097      3095      3101      3102      3097      3095      3101      3103
      3097      3095      3101      3104      3098      3097      3095      3101
      3099      3097      3095      3101      3100      3097      3095      3101
      3105      3109      3112      3113      3105      3109      3112      3143
      3105      3151      3148      3143      3105      3151      3148      3149
      3105      3151      3148      3150      3106      3105      3107      3108
      3106      3105      3109      3110      3106      3105      3109      3111
      3106      3105      3109      3112      3106      3105      3151      3148
      3106      3105      3151      3152      3106      3105      3151      3153
      3107      3105      3109      3110      3107      3105      3109      3111
      3107      3105      3109      3112      3107      3105      3151      3148
      3107      3105      3151      3152      3107      3105      3151      3153
      3108      3107      3105      3109      3108      3107      3105      3151
      3109      3105      3151      3148      3109      3105      3151      3152
      3109      3105      3151      3153      3109      3112      3113      3114
      3109      3112      3113      3115      3109      3112      3143      3141
      3109      3112      3143      3144      3109      3112      3143      3148
      3110      3109      3105      3151      3110      3109      3112      3113
      3110      3109      3112      3143      3111      3109      3105      3151
      3111      3109      3112      3113      3111      3109      3112      3143
      3112      3109      3105      3151      3112      3113      3115      3116
      3112      3113      3115      3117      3112      3113      3115      3118
      3112      3143      3141      3118      3112      3143      3141      3138
      3112      3143      3141      3142      3112      3143      3144      3145
      3112      3143      3144      3146      3112      3143      3144      3147
      3112      3143      3148      3149      3112      3143      3148      3150
      3112      3143      3148      3151      3113      3112      3143      3141
      3113      3112      3143      3144      3113      3112      3143      3148
      3113      3115      3118      3119      3113      3115      3118      3120
      3113      3115      3118      3141      3114      3113      3112      3143
      3114      3113      3115      3116      3114      3113      3115      3117
      3114      3113      3115      3118      3115      3113      3112      3143
      3115      3118      3120      3121      3115      3118      3120      3122
      3115      3118      3120      3130      3115      3118      3141      3138
      3115      3118      3141      3142      3115      3118      3141      3143
      3116      3115      3118      3119      3116      3115      3118      3120
      3116      3115      3118      3141      3117      3115      3118      3119
      3117      3115      3118      3120      3117      3115      3118      3141
      3118      3120      3122      3123      3118      3120      3122      3124
      3118      3120      3122      3125      3118      3120      3130      3128
      3118      3120      3130      3131      3118      3120      3130      3135
      3118      3141      3138      3135      3118      3141      3138      3139
      3118      3141      3138      3140      3118      3141      3143      3144
      3118      3141      3143      3148      3119      3118      3120      3121
      3119      3118      3120      3122      3119      3118      3120      3130
      3119      3118      3141      3138      3119      3118      3141      3142
      3119      3118      3141      3143      3120      3118      3141      3138
      3120      3118      3141      3142      3120      3118      3141      3143
      3120      3122      3125      3126      3120      3122      3125      3127
      3120      3122      3125      3128      3120      3130      3128      3125
      3120      3130      3128      3129      3120      3130      3128      3154
      3120      3130      3131      3132      3120      3130      3131      3133
      3120      3130      3131      3134      3120      3130      3135      3136
      3120      3130      3135      3137      3120      3130      3135      3138
      3121      3120      3118      3141      3121      3120      3122      3123
      3121      3120      3122      3124      3121      3120      3122      3125
      3121      3120      3130      3128      3121      3120      3130      3131
      3121      3120      3130      3135      3122      3120      3118      3141
      3122      3120      3130      3128      3122      3120      3130      3131
      3122      3120      3130      3135      3122      3125      3128      3129
      3122      3125      3128      3130      3122      3125      3128      3154
      3123      3122      3120      3130      3123      3122      3125      3126
      3123      3122      3125      3127      3123      3122      3125      3128
      3124      3122      3120      3130      3124      3122      3125      3126
      3124      3122      3125      3127      3124      3122      3125      3128
      3125      3122      3120      3130      3125      3128      3130      3131
      3125      3128      3130      3135      3125      3128      3154      3155
      3125      3128      3154      3156      3125      3128      3154      3160
      3126      3125      3128      3129      3126      3125      3128      3130
      3126      3125      3128      3154      3127      3125      3128      3129
      3127      3125      3128      3130      3127      3125      3128      3154
      3128      3130      3131      3132      3128      3130      3131      3133
      3128      3130      3131      3134      3128      3130      3135      3136
      3128      3130      3135      3137      3128      3130      3135      3138
      3128      3154      3156      3157      3128      3154      3156      3158
      3128      3154      3156      3159      3128      3154      3160      3161
      3128      3154      3160      3162      3128      3154      3160      3163
      3129      3128      3130      3131      3129      3128      3130      3135
      3129      3128      3154      3155      3129      3128      3154      3156
      3129      3128      3154      3160      3130      3120      3118      3141
      3130      3128      3154      3155      3130      3128      3154      3156
      3130      3128      3154      3160      3130      3135      3138      3139
      3130      3135      3138      3140      3130      3135      3138      3141
      3131      3130      3128      3154      3131      3130      3135      3136
      3131      3130      3135      3137      3131      3130      3135      3138
      3132      3131      3130      3135      3133      3131      3130      3135
      3134      3131      3130      3135      3135      3130      3128      3154
      3135      3138      3141      3142      3135      3138      3141      3143
      3136      3135      3138      3139      3136      3135      3138      3140
      3136      3135      3138      3141      3137      3135      3138      3139
      3137      3135      3138      3140      3137      3135      3138      3141
      3138      3141      3143      3144      3138      3141      3143      3148
      3139      3138      3141      3142      3139      3138      3141      3143
      3140      3138      3141      3142      3140      3138      3141      3143
      3141      3143      3144      3145      3141      3143      3144      3146
      3141      3143      3144      3147      3141      3143      3148      3149
      3141      3143      3148      3150      3141      3143      3148      3151
      3142      3141      3143      3144      3142      3141      3143      3148
      3143      3148      3151      3152      3143      3148      3151      3153
      3144      3143      3148      3149      3144      3143      3148      3150
      3144      3143      3148      3151      3145      3144      3143      3148
      3146      3144      3143      3148      3147      3144      3143      3148
      3149      3148      3151      3152      3149      3148      3151      3153
      3150      3148      3151      3152      3150      3148      3151      3153
      3154      3160      3163      3164      3154      3160      3163      3165
      3154      3160      3163      3166      3155      3154      3156      3157
      3155      3154      3156      3158      3155      3154      3156      3159
      3155      3154      3160      3161      3155      3154      3160      3162
      3155      3154      3160      3163      3156      3154      3160      3161
      3156      3154      3160      3162      3156      3154      3160      3163
      3157      3156      3154      3160      3158      3156      3154      3160
      3159      3156      3154      3160      3160      3163      3166      3167
      3160      3163      3166      3168      3160      3163      3166      3169
      3161      3160      3163      3164      3161      3160      3163      3165
      3161      3160      3163      3166      3162      3160      3163      3164
      3162      3160      3163      3165      3162      3160      3163      3166
      3163      3166      3169      3170      3163      3166      3169      3171
      3163      3166      3169      3175      3164      3163      3166      3167
      3164      3163      3166      3168      3164      3163      3166      3169
      3165      3163      3166      3167      3165      3163      3166      3168
      3165      3163      3166      3169      3166      3169      3171      3172
      3166      3169      3171      3173      3166      3169      3171      3174
      3166      3169      3175      3176      3166      3169      3175      3177
      3166      3169      3175      3178      3167      3166      3169      3170
      3167      3166      3169      3171      3167      3166      3169      3175
      3168      3166      3169      3170      3168      3166      3169      3171
      3168      3166      3169      3175      3170      3169      3171      3172
      3170      3169      3171      3173      3170      3169      3171      3174
      3170      3169      3175      3176      3170      3169      3175      3177
      3170      3169      3175      3178      3171      3169      3175      3176
      3171      3169      3175      3177      3171      3169      3175      3178
      3172      3171      3169      3175      3173      3171      3169      3175
      3174      3171      3169      3175     10450     10463     10466     10467
     10450     10463     10466     10468     10450     10463     10466     10473
     10451     10450     10455     10456     10451     10450     10455     10457
     10451     10450     10455     10458     10451     10450     10459     10460
     10451     10450     10459     10461     10451     10450     10459     10462
     10451     10450     10463     10464     10451     10450     10463     10465
     10451     10450     10463     10466     10452     10451     10450     10455
     10452     10451     10450     10459     10452     10451     10450     10463
     10453     10451     10450     10455     10453     10451     10450     10459
     10453     10451     10450     10463     10454     10451     10450     10455
     10454     10451     10450     10459     10454     10451     10450     10463
     10455     10450     10459     10460     10455     10450     10459     10461
     10455     10450     10459     10462     10455     10450     10463     10464
     10455     10450     10463     10465     10455     10450     10463     10466
     10456     10455     10450     10459     10456     10455     10450     10463
     10457     10455     10450     10459     10457     10455     10450     10463
     10458     10455     10450     10459     10458     10455     10450     10463
     10459     10450     10463     10464     10459     10450     10463     10465
     10459     10450     10463     10466     10460     10459     10450     10463
     10461     10459     10450     10463     10462     10459     10450     10463
     10463     10466     10473     10469     10464     10463     10466     10467
     10464     10463     10466     10468     10464     10463     10466     10473
     10465     10463     10466     10467     10465     10463     10466     10468
     10465     10463     10466     10473     10466     10473     10469     10470
     10466     10473     10469     10471     10466     10473     10469     10472
     10467     10466     10473     10469     10468     10466     10473     10469
     10469     10472     10474     10475     10469     10472     10474     10476
     10469     10472     10474     10479     10470     10469     10472     10474
     10471     10469     10472     10474     10472     10474     10479     10477
     10472     10474     10479     10480     10472     10474     10479     10481
     10473     10469     10472     10474     10474     10479     10477     10478
     10474     10479     10477     10529     10474     10479     10481     10482
     10474     10479     10481     10483     10474     10479     10481     10485
     10475     10474     10479     10477     10475     10474     10479     10480
     10475     10474     10479     10481     10476     10474     10479     10477
     10476     10474     10479     10480     10476     10474     10479     10481
     10477     10479     10481     10482     10477     10479     10481     10483
     10477     10479     10481     10485     10477     10529     10531     10532
     10477     10529     10531     10533     10477     10529     10531     10534
     10478     10477     10479     10480     10478     10477     10479     10481
     10478     10477     10529     10530     10478     10477     10529     10531
     10479     10477     10529     10530     10479     10477     10529     10531
     10479     10481     10483     10484     10479     10481     10485     10486
     10479     10481     10485     10487     10480     10479     10477     10529
     10480     10479     10481     10482     10480     10479     10481     10483
     10480     10479     10481     10485     10481     10479     10477     10529
     10481     10485     10487     10488     10481     10485     10487     10489
     10482     10481     10483     10484     10482     10481     10485     10486
     10482     10481     10485     10487     10483     10481     10485     10486
     10483     10481     10485     10487     10484     10483     10481     10485
     10485     10487     10489     10490     10485     10487     10489     10491
     10485     10487     10489     10492     10486     10485     10487     10488
     10486     10485     10487     10489     10487     10489     10492     10493
     10487     10489     10492     10494     10487     10489     10492     10495
     10488     10487     10489     10490     10488     10487     10489     10491
     10488     10487     10489     10492     10489     10492     10495     10496
     10489     10492     10495     10497     10489     10492     10495     10498
     10490     10489     10492     10493     10490     10489     10492     10494
     10490     10489     10492     10495     10491     10489     10492     10493
     10491     10489     10492     10494     10491     10489     10492     10495
     10492     10495     10498     10499     10492     10495     10498     10500
     10492     10495     10498     10501     10493     10492     10495     10496
     10493     10492     10495     10497     10493     10492     10495     10498
     10494     10492     10495     10496     10494     10492     10495     10497
     10494     10492     10495     10498     10495     10498     10501     10502
     10495     10498     10501     10503     10495     10498     10501     10504
     10496     10495     10498     10499     10496     10495     10498     10500
     10496     10495     10498     10501     10497     10495     10498     10499
     10497     10495     10498     10500     10497     10495     10498     10501
     10498     10501     10504     10505     10498     10501     10504     10506
     10498     10501     10504     10507     10499     10498     10501     10502
     10499     10498     10501     10503     10499     10498     10501     10504
     10500     10498     10501     10502     10500     10498     10501     10503
     10500     10498     10501     10504     10501     10504     10507     10508
     10501     10504     10507     10509     10501     10504     10507     10510
     10502     10501     10504     10505     10502     10501     10504     10506
     10502     10501     10504     10507     10503     10501     10504     10505
     10503     10501     10504     10506     10503     10501     10504     10507
     10504     10507     10510     10511     10504     10507     10510     10512
     10504     10507     10510     10513     10505     10504     10507     10508
     10505     10504     10507     10509     10505     10504     10507     10510
     10506     10504     10507     10508     10506     10504     10507     10509
     10506     10504     10507     10510     10507     10510     10513     10514
     10507     10510     10513     10515     10507     10510     10513     10516
     10508     10507     10510     10511     10508     10507     10510     10512
     10508     10507     10510     10513     10509     10507     10510     10511
     10509     10507     10510     10512     10509     10507     10510     10513
     10510     10513     10516     10517     10510     10513     10516     10518
     10510     10513     10516     10519     10511     10510     10513     10514
     10511     10510     10513     10515     10511     10510     10513     10516
     10512     10510     10513     10514     10512     10510     10513     10515
     10512     10510     10513     10516     10513     10516     10519     10520
     10513     10516     10519     10521     10513     10516     10519     10522
     10514     10513     10516     10517     10514     10513     10516     10518
     10514     10513     10516     10519     10515     10513     10516     10517
     10515     10513     10516     10518     10515     10513     10516     10519
     10516     10519     10522     10523     10516     10519     10522     10524
     10516     10519     10522     10525     10517     10516     10519     10520
     10517     10516     10519     10521     10517     10516     10519     10522
     10518     10516     10519     10520     10518     10516     10519     10521
     10518     10516     10519     10522     10519     10522     10525     10526
     10519     10522     10525     10527     10519     10522     10525     10528
     10520     10519     10522     10523     10520     10519     10522     10524
     10520     10519     10522     10525     10521     10519     10522     10523
     10521     10519     10522     10524     10521     10519     10522     10525
     10523     10522     10525     10526     10523     10522     10525     10527
     10523     10522     10525     10528     10524     10522     10525     10526
     10524     10522     10525     10527     10524     10522     10525     10528
     10529     10531     10534     10535     10529     10531     10534     10536
     10529     10531     10534     10537     10530     10529     10531     10532
     10530     10529     10531     10533     10530     10529     10531     10534
     10531     10534     10537     10538     10531     10534     10537     10539
     10531     10534     10537     10540     10532     10531     10534     10535
     10532     10531     10534     10536     10532     10531     10534     10537
     10533     10531     10534     10535     10533     10531     10534     10536
     10533     10531     10534     10537     10534     10537     10540     10541
     10534     10537     10540     10542     10534     10537     10540     10543
     10535     10534     10537     10538     10535     10534     10537     10539
     10535     10534     10537     10540     10536     10534     10537     10538
     10536     10534     10537     10539     10536     10534     10537     10540
     10537     10540     10543     10544     10537     10540     10543     10545
     10537     10540     10543     10546     10538     10537     10540     10541
     10538     10537     10540     10542     10538     10537     10540     10543
     10539     10537     10540     10541     10539     10537     10540     10542
     10539     10537     10540     10543     10540     10543     10546     10547
     10540     10543     10546     10548     10540     10543     10546     10549
     10541     10540     10543     10544     10541     10540     10543     10545
     10541     10540     10543     10546     10542     10540     10543     10544
     10542     10540     10543     10545     10542     10540     10543     10546
     10543     10546     10549     10550     10543     10546     10549     10551
     10543     10546     10549     10552     10544     10543     10546     10547
     10544     10543     10546     10548     10544     10543     10546     10549
     10545     10543     10546     10547     10545     10543     10546     10548
     10545     10543     10546     10549     10546     10549     10552     10553
     10546     10549     10552     10554     10547     10546     10549     10550
     10547     10546     10549     10551     10547     10546     10549     10552
     10548     10546     10549     10550     10548     10546     10549     10551
     10548     10546     10549     10552     10549     10552     10554     10555
     10549     10552     10554     10556     10550     10549     10552     10553
     10550     10549     10552     10554     10551     10549     10552     10553
     10551     10549     10552     10554     10552     10554     10556     10557
     10552     10554     10556     10558     10552     10554     10556     10559
     10553     10552     10554     10555     10553     10552     10554     10556
     10554     10556     10559     10560     10554     10556     10559     10561
     10554     10556     10559     10562     10555     10554     10556     10557
     10555     10554     10556     10558     10555     10554     10556     10559
     10556     10559     10562     10563     10556     10559     10562     10564
     10556     10559     10562     10565     10557     10556     10559     10560
     10557     10556     10559     10561     10557     10556     10559     10562
     10558     10556     10559     10560     10558     10556     10559     10561
     10558     10556     10559     10562     10559     10562     10565     10566
     10559     10562     10565     10567     10559     10562     10565     10568
     10560     10559     10562     10563     10560     10559     10562     10564
     10560     10559     10562     10565     10561     10559     10562     10563
     10561     10559     10562     10564     10561     10559     10562     10565
     10562     10565     10568     10569     10562     10565     10568     10570
     10562     10565     10568     10571     10563     10562     10565     10566
     10563     10562     10565     10567     10563     10562     10565     10568
     10564     10562     10565     10566     10564     10562     10565     10567
     10564     10562     10565     10568     10565     10568     10571     10572
     10565     10568     10571     10573     10565     10568     10571     10574
     10566     10565     10568     10569     10566     10565     10568     10570
     10566     10565     10568     10571     10567     10565     10568     10569
     10567     10565     10568     10570     10567     10565     10568     10571
     10568     10571     10574     10575     10568     10571     10574     10576
     10568     10571     10574     10577     10569     10568     10571     10572
     10569     10568     10571     10573     10569     10568     10571     10574
     10570     10568     10571     10572     10570     10568     10571     10573
     10570     10568     10571     10574     10571     10574     10577     10578
     10571     10574     10577     10579     10571     10574     10577     10580
     10572     10571     10574     10575     10572     10571     10574     10576
     10572     10571     10574     10577     10573     10571     10574     10575
     10573     10571     10574     10576     10573     10571     10574     10577
     10575     10574     10577     10578     10575     10574     10577     10579
     10575     10574     10577     10580     10576     10574     10577     10578
     10576     10574     10577     10579     10576     10574     10577     10580
      3179      3183      3186      3187      3179      3183      3186      3217
      3179      3225      3222      3217      3179      3225      3222      3223
      3179      3225      3222      3224      3180      3179      3181      3182
      3180      3179      3183      3184      3180      3179      3183      3185
      3180      3179      3183      3186      3180      3179      3225      3222
      3180      3179      3225      3226      3180      3179      3225      3227
      3181      3179      3183      3184      3181      3179      3183      3185
      3181      3179      3183      3186      3181      3179      3225      3222
      3181      3179      3225      3226      3181      3179      3225      3227
      3182      3181      3179      3183      3182      3181      3179      3225
      3183      3179      3225      3222      3183      3179      3225      3226
      3183      3179      3225      3227      3183      3186      3187      3188
      3183      3186      3187      3189      3183      3186      3217      3215
      3183      3186      3217      3218      3183      3186      3217      3222
      3184      3183      3179      3225      3184      3183      3186      3187
      3184      3183      3186      3217      3185      3183      3179      3225
      3185      3183      3186      3187      3185      3183      3186      3217
      3186      3183      3179      3225      3186      3187      3189      3190
      3186      3187      3189      3191      3186      3187      3189      3192
      3186      3217      3215      3192      3186      3217      3215      3212
      3186      3217      3215      3216      3186      3217      3218      3219
      3186      3217      3218      3220      3186      3217      3218      3221
      3186      3217      3222      3223      3186      3217      3222      3224
      3186      3217      3222      3225      3187      3186      3217      3215
      3187      3186      3217      3218      3187      3186      3217      3222
      3187      3189      3192      3193      3187      3189      3192      3194
      3187      3189      3192      3215      3188      3187      3186      3217
      3188      3187      3189      3190      3188      3187      3189      3191
      3188      3187      3189      3192      3189      3187      3186      3217
      3189      3192      3194      3195      3189      3192      3194      3196
      3189      3192      3194      3204      3189      3192      3215      3212
      3189      3192      3215      3216      3189      3192      3215      3217
      3190      3189      3192      3193      3190      3189      3192      3194
      3190      3189      3192      3215      3191      3189      3192      3193
      3191      3189      3192      3194      3191      3189      3192      3215
      3192      3194      3196      3197      3192      3194      3196      3198
      3192      3194      3196      3199      3192      3194      3204      3202
      3192      3194      3204      3205      3192      3194      3204      3209
      3192      3215      3212      3209      3192      3215      3212      3213
      3192      3215      3212      3214      3192      3215      3217      3218
      3192      3215      3217      3222      3193      3192      3194      3195
      3193      3192      3194      3196      3193      3192      3194      3204
      3193      3192      3215      3212      3193      3192      3215      3216
      3193      3192      3215      3217      3194      3192      3215      3212
      3194      3192      3215      3216      3194      3192      3215      3217
      3194      3196      3199      3200      3194      3196      3199      3201
      3194      3196      3199      3202      3194      3204      3202      3199
      3194      3204      3202      3203      3194      3204      3202      3228
      3194      3204      3205      3206      3194      3204      3205      3207
      3194      3204      3205      3208      3194      3204      3209      3210
      3194      3204      3209      3211      3194      3204      3209      3212
      3195      3194      3192      3215      3195      3194      3196      3197
      3195      3194      3196      3198      3195      3194      3196      3199
      3195      3194      3204      3202      3195      3194      3204      3205
      3195      3194      3204      3209      3196      3194      3192      3215
      3196      3194      3204      3202      3196      3194      3204      3205
      3196      3194      3204      3209      3196      3199      3202      3203
      3196      3199      3202      3204      3196      3199      3202      3228
      3197      3196      3194      3204      3197      3196      3199      3200
      3197      3196      3199      3201      3197      3196      3199      3202
      3198      3196      3194      3204      3198      3196      3199      3200
      3198      3196      3199      3201      3198      3196      3199      3202
      3199      3196      3194      3204      3199      3202      3204      3205
      3199      3202      3204      3209      3199      3202      3228      3229
      3199      3202      3228      3230      3199      3202      3228      3234
      3200      3199      3202      3203      3200      3199      3202      3204
      3200      3199      3202      3228      3201      3199      3202      3203
      3201      3199      3202      3204      3201      3199      3202      3228
      3202      3204      3205      3206      3202      3204      3205      3207
      3202      3204      3205      3208      3202      3204      3209      3210
      3202      3204      3209      3211      3202      3204      3209      3212
      3202      3228      3230      3231      3202      3228      3230      3232
      3202      3228      3230      3233      3202      3228      3234      3235
      3202      3228      3234      3236      3202      3228      3234      3237
      3203      3202      3204      3205      3203      3202      3204      3209
      3203      3202      3228      3229      3203      3202      3228      3230
      3203      3202      3228      3234      3204      3194      3192      3215
      3204      3202      3228      3229      3204      3202      3228      3230
      3204      3202      3228      3234      3204      3209      3212      3213
      3204      3209      3212      3214      3204      3209      3212      3215
      3205      3204      3202      3228      3205      3204      3209      3210
      3205      3204      3209      3211      3205      3204      3209      3212
      3206      3205      3204      3209      3207      3205      3204      3209
      3208      3205      3204      3209      3209      3204      3202      3228
      3209      3212      3215      3216      3209      3212      3215      3217
      3210      3209      3212      3213      3210      3209      3212      3214
      3210      3209      3212      3215      3211      3209      3212      3213
      3211      3209      3212      3214      3211      3209      3212      3215
      3212      3215      3217      3218      3212      3215      3217      3222
      3213      3212      3215      3216      3213      3212      3215      3217
      3214      3212      3215      3216      3214      3212      3215      3217
      3215      3217      3218      3219      3215      3217      3218      3220
      3215      3217      3218      3221      3215      3217      3222      3223
      3215      3217      3222      3224      3215      3217      3222      3225
      3216      3215      3217      3218      3216      3215      3217      3222
      3217      3222      3225      3226      3217      3222      3225      3227
      3218      3217      3222      3223      3218      3217      3222      3224
      3218      3217      3222      3225      3219      3218      3217      3222
      3220      3218      3217      3222      3221      3218      3217      3222
      3223      3222      3225      3226      3223      3222      3225      3227
      3224      3222      3225      3226      3224      3222      3225      3227
      3228      3234      3237      3238      3228      3234      3237      3239
      3228      3234      3237      3240      3229      3228      3230      3231
      3229      3228      3230      3232      3229      3228      3230      3233
      3229      3228      3234      3235      3229      3228      3234      3236
      3229      3228      3234      3237      3230      3228      3234      3235
      3230      3228      3234      3236      3230      3228      3234      3237
      3231      3230      3228      3234      3232      3230      3228      3234
      3233      3230      3228      3234      3234      3237      3240      3241
      3234      3237      3240      3242      3234      3237      3240      3243
      3235      3234      3237      3238      3235      3234      3237      3239
      3235      3234      3237      3240      3236      3234      3237      3238
      3236      3234      3237      3239      3236      3234      3237      3240
      3237      3240      3243      3244      3237      3240      3243      3245
      3237      3240      3243      3249      3238      3237      3240      3241
      3238      3237      3240      3242      3238      3237      3240      3243
      3239      3237      3240      3241      3239      3237      3240      3242
      3239      3237      3240      3243      3240      3243      3245      3246
      3240      3243      3245      3247      3240      3243      3245      3248
      3240      3243      3249      3250      3240      3243      3249      3251
      3240      3243      3249      3252      3241      3240      3243      3244
      3241      3240      3243      3245      3241      3240      3243      3249
      3242      3240      3243      3244      3242      3240      3243      3245
      3242      3240      3243      3249      3244      3243      3245      3246
      3244      3243      3245      3247      3244      3243      3245      3248
      3244      3243      3249      3250      3244      3243      3249      3251
      3244      3243      3249      3252      3245      3243      3249      3250
      3245      3243      3249      3251      3245      3243      3249      3252
      3246      3245      3243      3249      3247      3245      3243      3249
      3248      3245      3243      3249     10581     10594     10597     10598
     10581     10594     10597     10599     10581     10594     10597     10604
     10582     10581     10586     10587     10582     10581     10586     10588
     10582     10581     10586     10589     10582     10581     10590     10591
     10582     10581     10590     10592     10582     10581     10590     10593
     10582     10581     10594     10595     10582     10581     10594     10596
     10582     10581     10594     10597     10583     10582     10581     10586
     10583     10582     10581     10590     10583     10582     10581     10594
     10584     10582     10581     10586     10584     10582     10581     10590
     10584     10582     10581     10594     10585     10582     10581     10586
     10585     10582     10581     10590     10585     10582     10581     10594
     10586     10581     10590     10591     10586     10581     10590     10592
     10586     10581     10590     10593     10586     10581     10594     10595
     10586     10581     10594     10596     10586     10581     10594     10597
     10587     10586     10581     10590     10587     10586     10581     10594
     10588     10586     10581     10590     10588     10586     10581     10594
     10589     10586     10581     10590     10589     10586     10581     10594
     10590     10581     10594     10595     10590     10581     10594     10596
     10590     10581     10594     10597     10591     10590     10581     10594
     10592     10590     10581     10594     10593     10590     10581     10594
     10594     10597     10604     10600     10595     10594     10597     10598
     10595     10594     10597     10599     10595     10594     10597     10604
     10596     10594     10597     10598     10596     10594     10597     10599
     10596     10594     10597     10604     10597     10604     10600     10601
     10597     10604     10600     10602     10597     10604     10600     10603
     10598     10597     10604     10600     10599     10597     10604     10600
     10600     10603     10605     10606     10600     10603     10605     10607
     10600     10603     10605     10610     10601     10600     10603     10605
     10602     10600     10603     10605     10603     10605     10610     10608
     10603     10605     10610     10611     10603     10605     10610     10612
     10604     10600     10603     10605     10605     10610     10608     10609
     10605     10610     10608     10660     10605     10610     10612     10613
     10605     10610     10612     10614     10605     10610     10612     10616
     10606     10605     10610     10608     10606     10605     10610     10611
     10606     10605     10610     10612     10607     10605     10610     10608
     10607     10605     10610     10611     10607     10605     10610     10612
     10608     10610     10612     10613     10608     10610     10612     10614
     10608     10610     10612     10616     10608     10660     10662     10663
     10608     10660     10662     10664     10608     10660     10662     10665
     10609     10608     10610     10611     10609     10608     10610     10612
     10609     10608     10660     10661     10609     10608     10660     10662
     10610     10608     10660     10661     10610     10608     10660     10662
     10610     10612     10614     10615     10610     10612     10616     10617
     10610     10612     10616     10618     10611     10610     10608     10660
     10611     10610     10612     10613     10611     10610     10612     10614
     10611     10610     10612     10616     10612     10610     10608     10660
     10612     10616     10618     10619     10612     10616     10618     10620
     10613     10612     10614     10615     10613     10612     10616     10617
     10613     10612     10616     10618     10614     10612     10616     10617
     10614     10612     10616     10618     10615     10614     10612     10616
     10616     10618     10620     10621     10616     10618     10620     10622
     10616     10618     10620     10623     10617     10616     10618     10619
     10617     10616     10618     10620     10618     10620     10623     10624
     10618     10620     10623     10625     10618     10620     10623     10626
     10619     10618     10620     10621     10619     10618     10620     10622
     10619     10618     10620     10623     10620     10623     10626     10627
     10620     10623     10626     10628     10620     10623     10626     10629
     10621     10620     10623     10624     10621     10620     10623     10625
     10621     10620     10623     10626     10622     10620     10623     10624
     10622     10620     10623     10625     10622     10620     10623     10626
     10623     10626     10629     10630     10623     10626     10629     10631
     10623     10626     10629     10632     10624     10623     10626     10627
     10624     10623     10626     10628     10624     10623     10626     10629
     10625     10623     10626     10627     10625     10623     10626     10628
     10625     10623     10626     10629     10626     10629     10632     10633
     10626     10629     10632     10634     10626     10629     10632     10635
     10627     10626     10629     10630     10627     10626     10629     10631
     10627     10626     10629     10632     10628     10626     10629     10630
     10628     10626     10629     10631     10628     10626     10629     10632
     10629     10632     10635     10636     10629     10632     10635     10637
     10629     10632     10635     10638     10630     10629     10632     10633
     10630     10629     10632     10634     10630     10629     10632     10635
     10631     10629     10632     10633     10631     10629     10632     10634
     10631     10629     10632     10635     10632     10635     10638     10639
     10632     10635     10638     10640     10632     10635     10638     10641
     10633     10632     10635     10636     10633     10632     10635     10637
     10633     10632     10635     10638     10634     10632     10635     10636
     10634     10632     10635     10637     10634     10632     10635     10638
     10635     10638     10641     10642     10635     10638     10641     10643
     10635     10638     10641     10644     10636     10635     10638     10639
     10636     10635     10638     10640     10636     10635     10638     10641
     10637     10635     10638     10639     10637     10635     10638     10640
     10637     10635     10638     10641     10638     10641     10644     10645
     10638     10641     10644     10646     10638     10641     10644     10647
     10639     10638     10641     10642     10639     10638     10641     10643
     10639     10638     10641     10644     10640     10638     10641     10642
     10640     10638     10641     10643     10640     10638     10641     10644
     10641     10644     10647     10648     10641     10644     10647     10649
     10641     10644     10647     10650     10642     10641     10644     10645
     10642     10641     10644     10646     10642     10641     10644     10647
     10643     10641     10644     10645     10643     10641     10644     10646
     10643     10641     10644     10647     10644     10647     10650     10651
     10644     10647     10650     10652     10644     10647     10650     10653
     10645     10644     10647     10648     10645     10644     10647     10649
     10645     10644     10647     10650     10646     10644     10647     10648
     10646     10644     10647     10649     10646     10644     10647     10650
     10647     10650     10653     10654     10647     10650     10653     10655
     10647     10650     10653     10656     10648     10647     10650     10651
     10648     10647     10650     10652     10648     10647     10650     10653
     10649     10647     10650     10651     10649     10647     10650     10652
     10649     10647     10650     10653     10650     10653     10656     10657
     10650     10653     10656     10658     10650     10653     10656     10659
     10651     10650     10653     10654     10651     10650     10653     10655
     10651     10650     10653     10656     10652     10650     10653     10654
     10652     10650     10653     10655     10652     10650     10653     10656
     10654     10653     10656     10657     10654     10653     10656     10658
     10654     10653     10656     10659     10655     10653     10656     10657
     10655     10653     10656     10658     10655     10653     10656     10659
     10660     10662     10665     10666     10660     10662     10665     10667
     10660     10662     10665     10668     10661     10660     10662     10663
     10661     10660     10662     10664     10661     10660     10662     10665
     10662     10665     10668     10669     10662     10665     10668     10670
     10662     10665     10668     10671     10663     10662     10665     10666
     10663     10662     10665     10667     10663     10662     10665     10668
     10664     10662     10665     10666     10664     10662     10665     10667
     10664     10662     10665     10668     10665     10668     10671     10672
     10665     10668     10671     10673     10665     10668     10671     10674
     10666     10665     10668     10669     10666     10665     10668     10670
     10666     10665     10668     10671     10667     10665     10668     10669
     10667     10665     10668     10670     10667     10665     10668     10671
     10668     10671     10674     10675     10668     10671     10674     10676
     10668     10671     10674     10677     10669     10668     10671     10672
     10669     10668     10671     10673     10669     10668     10671     10674
     10670     10668     10671     10672     10670     10668     10671     10673
     10670     10668     10671     10674     10671     10674     10677     10678
     10671     10674     10677     10679     10671     10674     10677     10680
     10672     10671     10674     10675     10672     10671     10674     10676
     10672     10671     10674     10677     10673     10671     10674     10675
     10673     10671     10674     10676     10673     10671     10674     10677
     10674     10677     10680     10681     10674     10677     10680     10682
     10674     10677     10680     10683     10675     10674     10677     10678
     10675     10674     10677     10679     10675     10674     10677     10680
     10676     10674     10677     10678     10676     10674     10677     10679
     10676     10674     10677     10680     10677     10680     10683     10684
     10677     10680     10683     10685     10678     10677     10680     10681
     10678     10677     10680     10682     10678     10677     10680     10683
     10679     10677     10680     10681     10679     10677     10680     10682
     10679     10677     10680     10683     10680     10683     10685     10686
     10680     10683     10685     10687     10681     10680     10683     10684
     10681     10680     10683     10685     10682     10680     10683     10684
     10682     10680     10683     10685     10683     10685     10687     10688
     10683     10685     10687     10689     10683     10685     10687     10690
     10684     10683     10685     10686     10684     10683     10685     10687
     10685     10687     10690     10691     10685     10687     10690     10692
     10685     10687     10690     10693     10686     10685     10687     10688
     10686     10685     10687     10689     10686     10685     10687     10690
     10687     10690     10693     10694     10687     10690     10693     10695
     10687     10690     10693     10696     10688     10687     10690     10691
     10688     10687     10690     10692     10688     10687     10690     10693
     10689     10687     10690     10691     10689     10687     10690     10692
     10689     10687     10690     10693     10690     10693     10696     10697
     10690     10693     10696     10698     10690     10693     10696     10699
     10691     10690     10693     10694     10691     10690     10693     10695
     10691     10690     10693     10696     10692     10690     10693     10694
     10692     10690     10693     10695     10692     10690     10693     10696
     10693     10696     10699     10700     10693     10696     10699     10701
     10693     10696     10699     10702     10694     10693     10696     10697
     10694     10693     10696     10698     10694     10693     10696     10699
     10695     10693     10696     10697     10695     10693     10696     10698
     10695     10693     10696     10699     10696     10699     10702     10703
     10696     10699     10702     10704     10696     10699     10702     10705
     10697     10696     10699     10700     10697     10696     10699     10701
     10697     10696     10699     10702     10698     10696     10699     10700
     10698     10696     10699     10701     10698     10696     10699     10702
     10699     10702     10705     10706     10699     10702     10705     10707
     10699     10702     10705     10708     10700     10699     10702     10703
     10700     10699     10702     10704     10700     10699     10702     10705
     10701     10699     10702     10703     10701     10699     10702     10704
     10701     10699     10702     10705     10702     10705     10708     10709
     10702     10705     10708     10710     10702     10705     10708     10711
     10703     10702     10705     10706     10703     10702     10705     10707
     10703     10702     10705     10708     10704     10702     10705     10706
     10704     10702     10705     10707     10704     10702     10705     10708
     10706     10705     10708     10709     10706     10705     10708     10710
     10706     10705     10708     10711     10707     10705     10708     10709
     10707     10705     10708     10710     10707     10705     10708     10711
      7067      7071      7074      7075      7067      7071      7074      7076
      7067      7071      7074      7080      7068      7067      7071      7072
      7068      7067      7071      7073      7068      7067      7071      7074
      7069      7067      7071      7072      7069      7067      7071      7073
      7069      7067      7071      7074      7070      7067      7071      7072
      7070      7067      7071      7073      7070      7067      7071      7074
      7071      7074      7080      7077      7072      7071      7074      7075
      7072      7071      7074      7076      7072      7071      7074      7080
      7073      7071      7074      7075      7073      7071      7074      7076
      7073      7071      7074      7080      7074      7080      7077      7078
      7074      7080      7077      7079      7074      7080      7077      7081
      7075      7074      7080      7077      7076      7074      7080      7077
      7077      7081      7082      7083      7077      7081      7082      7084
      7077      7081      7082      7085      7078      7077      7081      7082
      7079      7077      7081      7082      7080      7077      7081      7082
      7081      7082      7085      7086      7081      7082      7085      7087
      7081      7082      7085      7093      7082      7085      7087      7088
      7082      7085      7093      7094      7082      7085      7093      7095
      7082      7085      7093      7096      7083      7082      7085      7086
      7083      7082      7085      7087      7083      7082      7085      7093
      7084      7082      7085      7086      7084      7082      7085      7087
      7084      7082      7085      7093      7085      7087      7088      7089
      7085      7087      7088      7090      7085      7093      7096      7097
      7086      7085      7087      7088      7086      7085      7093      7094
      7086      7085      7093      7095      7086      7085      7093      7096
      7087      7085      7093      7094      7087      7085      7093      7095
      7087      7085      7093      7096      7087      7088      7090      7091
      7087      7088      7090      7092      7087      7088      7090      7102
      7088      7087      7085      7093      7088      7090      7102      7103
      7088      7090      7102      7104      7088      7090      7102      7105
      7089      7088      7090      7091      7089      7088      7090      7092
      7089      7088      7090      7102      7090      7102      7105      7106
      7090      7102      7105      7107      7090      7102      7105      7108
      7091      7090      7102      7103      7091      7090      7102      7104
      7091      7090      7102      7105      7092      7090      7102      7103
      7092      7090      7102      7104      7092      7090      7102      7105
      7093      7096      7097      7098      7093      7096      7097      7099
      7094      7093      7096      7097      7095      7093      7096      7097
      7096      7097      7099      7100      7096      7097      7099      7101
      7096      7097      7099      7149      7097      7099      7149      7150
      7097      7099      7149      7151      7097      7099      7149      7152
      7098      7097      7099      7100      7098      7097      7099      7101
      7098      7097      7099      7149      7099      7149      7152      7153
      7099      7149      7152      7154      7099      7149      7152      7155
      7100      7099      7149      7150      7100      7099      7149      7151
      7100      7099      7149      7152      7101      7099      7149      7150
      7101      7099      7149      7151      7101      7099      7149      7152
      7102      7105      7108      7109      7102      7105      7108      7110
      7102      7105      7108      7111      7103      7102      7105      7106
      7103      7102      7105      7107      7103      7102      7105      7108
      7104      7102      7105      7106      7104      7102      7105      7107
      7104      7102      7105      7108      7105      7108      7111      7112
      7105      7108      7111      7113      7105      7108      7111      7114
      7106      7105      7108      7109      7106      7105      7108      7110
      7106      7105      7108      7111      7107      7105      7108      7109
      7107      7105      7108      7110      7107      7105      7108      7111
      7108      7111      7114      7115      7108      7111      7114      7116
      7108      7111      7114      7117      7109      7108      7111      7112
      7109      7108      7111      7113      7109      7108      7111      7114
      7110      7108      7111      7112      7110      7108      7111      7113
      7110      7108      7111      7114      7111      7114      7117      7118
      7111      7114      7117      7119      7111      7114      7117      7120
      7112      7111      7114      7115      7112      7111      7114      7116
      7112      7111      7114      7117      7113      7111      7114      7115
      7113      7111      7114      7116      7113      7111      7114      7117
      7114      7117      7120      7121      7114      7117      7120      7122
      7115      7114      7117      7118      7115      7114      7117      7119
      7115      7114      7117      7120      7116      7114      7117      7118
      7116      7114      7117      7119      7116      7114      7117      7120
      7117      7120      7122      7123      7117      7120      7122      7124
      7118      7117      7120      7121      7118      7117      7120      7122
      7119      7117      7120      7121      7119      7117      7120      7122
      7120      7122      7124      7125      7120      7122      7124      7126
      7120      7122      7124      7127      7121      7120      7122      7123
      7121      7120      7122      7124      7122      7124      7127      7128
      7122      7124      7127      7129      7122      7124      7127      7130
      7123      7122      7124      7125      7123      7122      7124      7126
      7123      7122      7124      7127      7124      7127      7130      7131
      7124      7127      7130      7132      7124      7127      7130      7133
      7125      7124      7127      7128      7125      7124      7127      7129
      7125      7124      7127      7130      7126      7124      7127      7128
      7126      7124      7127      7129      7126      7124      7127      7130
      7127      7130      7133      7134      7127      7130      7133      7135
      7127      7130      7133      7136      7128      7127      7130      7131
      7128      7127      7130      7132      7128      7127      7130      7133
      7129      7127      7130      7131      7129      7127      7130      7132
      7129      7127      7130      7133      7130      7133      7136      7137
      7130      7133      7136      7138      7130      7133      7136      7139
      7131      7130      7133      7134      7131      7130      7133      7135
      7131      7130      7133      7136      7132      7130      7133      7134
      7132      7130      7133      7135      7132      7130      7133      7136
      7133      7136      7139      7140      7133      7136      7139      7141
      7133      7136      7139      7142      7134      7133      7136      7137
      7134      7133      7136      7138      7134      7133      7136      7139
      7135      7133      7136      7137      7135      7133      7136      7138
      7135      7133      7136      7139      7136      7139      7142      7143
      7136      7139      7142      7144      7136      7139      7142      7145
      7137      7136      7139      7140      7137      7136      7139      7141
      7137      7136      7139      7142      7138      7136      7139      7140
      7138      7136      7139      7141      7138      7136      7139      7142
      7139      7142      7145      7146      7139      7142      7145      7147
      7139      7142      7145      7148      7140      7139      7142      7143
      7140      7139      7142      7144      7140      7139      7142      7145
      7141      7139      7142      7143      7141      7139      7142      7144
      7141      7139      7142      7145      7143      7142      7145      7146
      7143      7142      7145      7147      7143      7142      7145      7148
      7144      7142      7145      7146      7144      7142      7145      7147
      7144      7142      7145      7148      7149      7152      7155      7156
      7149      7152      7155      7157      7149      7152      7155      7158
      7150      7149      7152      7153      7150      7149      7152      7154
      7150      7149      7152      7155      7151      7149      7152      7153
      7151      7149      7152      7154      7151      7149      7152      7155
      7152      7155      7158      7159      7152      7155      7158      7160
      7152      7155      7158      7161      7153      7152      7155      7156
      7153      7152      7155      7157      7153      7152      7155      7158
      7154      7152      7155      7156      7154      7152      7155      7157
      7154      7152      7155      7158      7155      7158      7161      7162
      7155      7158      7161      7163      7155      7158      7161      7164
      7156      7155      7158      7159      7156      7155      7158      7160
      7156      7155      7158      7161      7157      7155      7158      7159
      7157      7155      7158      7160      7157      7155      7158      7161
      7158      7161      7164      7165      7158      7161      7164      7166
      7158      7161      7164      7167      7159      7158      7161      7162
      7159      7158      7161      7163      7159      7158      7161      7164
      7160      7158      7161      7162      7160      7158      7161      7163
      7160      7158      7161      7164      7161      7164      7167      7168
      7161      7164      7167      7169      7161      7164      7167      7170
      7162      7161      7164      7165      7162      7161      7164      7166
      7162      7161      7164      7167      7163      7161      7164      7165
      7163      7161      7164      7166      7163      7161      7164      7167
      7164      7167      7170      7171      7164      7167      7170      7172
      7164      7167      7170      7173      7165      7164      7167      7168
      7165      7164      7167      7169      7165      7164      7167      7170
      7166      7164      7167      7168      7166      7164      7167      7169
      7166      7164      7167      7170      7167      7170      7173      7174
      7167      7170      7173      7175      7167      7170      7173      7176
      7168      7167      7170      7171      7168      7167      7170      7172
      7168      7167      7170      7173      7169      7167      7170      7171
      7169      7167      7170      7172      7169      7167      7170      7173
      7170      7173      7176      7177      7170      7173      7176      7178
      7170      7173      7176      7179      7171      7170      7173      7174
      7171      7170      7173      7175      7171      7170      7173      7176
      7172      7170      7173      7174      7172      7170      7173      7175
      7172      7170      7173      7176      7173      7176      7179      7180
      7173      7176      7179      7181      7173      7176      7179      7182
      7174      7173      7176      7177      7174      7173      7176      7178
      7174      7173      7176      7179      7175      7173      7176      7177
      7175      7173      7176      7178      7175      7173      7176      7179
      7176      7179      7182      7183      7176      7179      7182      7184
      7176      7179      7182      7185      7177      7176      7179      7180
      7177      7176      7179      7181      7177      7176      7179      7182
      7178      7176      7179      7180      7178      7176      7179      7181
      7178      7176      7179      7182      7179      7182      7185      7186
      7179      7182      7185      7187      7179      7182      7185      7188
      7180      7179      7182      7183      7180      7179      7182      7184
      7180      7179      7182      7185      7181      7179      7182      7183
      7181      7179      7182      7184      7181      7179      7182      7185
      7182      7185      7188      7189      7182      7185      7188      7190
      7182      7185      7188      7191      7183      7182      7185      7186
      7183      7182      7185      7187      7183      7182      7185      7188
      7184      7182      7185      7186      7184      7182      7185      7187
      7184      7182      7185      7188      7185      7188      7191      7192
      7185      7188      7191      7193      7185      7188      7191      7194
      7186      7185      7188      7189      7186      7185      7188      7190
      7186      7185      7188      7191      7187      7185      7188      7189
      7187      7185      7188      7190      7187      7185      7188      7191
      7188      7191      7194      7195      7188      7191      7194      7196
      7188      7191      7194      7197      7189      7188      7191      7192
      7189      7188      7191      7193      7189      7188      7191      7194
      7190      7188      7191      7192      7190      7188      7191      7193
      7190      7188      7191      7194      7192      7191      7194      7195
      7192      7191      7194      7196      7192      7191      7194      7197
      7193      7191      7194      7195      7193      7191      7194      7196
      7193      7191      7194      7197      3253      3257      3260      3261
      3253      3257      3260      3291      3253      3299      3296      3291
      3253      3299      3296      3297      3253      3299      3296      3298
      3254      3253      3255      3256      3254      3253      3257      3258
      3254      3253      3257      3259      3254      3253      3257      3260
      3254      3253      3299      3296      3254      3253      3299      3300
      3254      3253      3299      3301      3255      3253      3257      3258
      3255      3253      3257      3259      3255      3253      3257      3260
      3255      3253      3299      3296      3255      3253      3299      3300
      3255      3253      3299      3301      3256      3255      3253      3257
      3256      3255      3253      3299      3257      3253      3299      3296
      3257      3253      3299      3300      3257      3253      3299      3301
      3257      3260      3261      3262      3257      3260      3261      3263
      3257      3260      3291      3289      3257      3260      3291      3292
      3257      3260      3291      3296      3258      3257      3253      3299
      3258      3257      3260      3261      3258      3257      3260      3291
      3259      3257      3253      3299      3259      3257      3260      3261
      3259      3257      3260      3291      3260      3257      3253      3299
      3260      3261      3263      3264      3260      3261      3263      3265
      3260      3261      3263      3266      3260      3291      3289      3266
      3260      3291      3289      3286      3260      3291      3289      3290
      3260      3291      3292      3293      3260      3291      3292      3294
      3260      3291      3292      3295      3260      3291      3296      3297
      3260      3291      3296      3298      3260      3291      3296      3299
      3261      3260      3291      3289      3261      3260      3291      3292
      3261      3260      3291      3296      3261      3263      3266      3267
      3261      3263      3266      3268      3261      3263      3266      3289
      3262      3261      3260      3291      3262      3261      3263      3264
      3262      3261      3263      3265      3262      3261      3263      3266
      3263      3261      3260      3291      3263      3266      3268      3269
      3263      3266      3268      3270      3263      3266      3268      3278
      3263      3266      3289      3286      3263      3266      3289      3290
      3263      3266      3289      3291      3264      3263      3266      3267
      3264      3263      3266      3268      3264      3263      3266      3289
      3265      3263      3266      3267      3265      3263      3266      3268
      3265      3263      3266      3289      3266      3268      3270      3271
      3266      3268      3270      3272      3266      3268      3270      3273
      3266      3268      3278      3276      3266      3268      3278      3279
      3266      3268      3278      3283      3266      3289      3286      3283
      3266      3289      3286      3287      3266      3289      3286      3288
      3266      3289      3291      3292      3266      3289      3291      3296
      3267      3266      3268      3269      3267      3266      3268      3270
      3267      3266      3268      3278      3267      3266      3289      3286
      3267      3266      3289      3290      3267      3266      3289      3291
      3268      3266      3289      3286      3268      3266      3289      3290
      3268      3266      3289      3291      3268      3270      3273      3274
      3268      3270      3273      3275      3268      3270      3273      3276
      3268      3278      3276      3273      3268      3278      3276      3277
      3268      3278      3276      3302      3268      3278      3279      3280
      3268      3278      3279      3281      3268      3278      3279      3282
      3268      3278      3283      3284      3268      3278      3283      3285
      3268      3278      3283      3286      3269      3268      3266      3289
      3269      3268      3270      3271      3269      3268      3270      3272
      3269      3268      3270      3273      3269      3268      3278      3276
      3269      3268      3278      3279      3269      3268      3278      3283
      3270      3268      3266      3289      3270      3268      3278      3276
      3270      3268      3278      3279      3270      3268      3278      3283
      3270      3273      3276      3277      3270      3273      3276      3278
      3270      3273      3276      3302      3271      3270      3268      3278
      3271      3270      3273      3274      3271      3270      3273      3275
      3271      3270      3273      3276      3272      3270      3268      3278
      3272      3270      3273      3274      3272      3270      3273      3275
      3272      3270      3273      3276      3273      3270      3268      3278
      3273      3276      3278      3279      3273      3276      3278      3283
      3273      3276      3302      3303      3273      3276      3302      3304
      3273      3276      3302      3308      3274      3273      3276      3277
      3274      3273      3276      3278      3274      3273      3276      3302
      3275      3273      3276      3277      3275      3273      3276      3278
      3275      3273      3276      3302      3276      3278      3279      3280
      3276      3278      3279      3281      3276      3278      3279      3282
      3276      3278      3283      3284      3276      3278      3283      3285
      3276      3278      3283      3286      3276      3302      3304      3305
      3276      3302      3304      3306      3276      3302      3304      3307
      3276      3302      3308      3309      3276      3302      3308      3310
      3276      3302      3308      3311      3277      3276      3278      3279
      3277      3276      3278      3283      3277      3276      3302      3303
      3277      3276      3302      3304      3277      3276      3302      3308
      3278      3268      3266      3289      3278      3276      3302      3303
      3278      3276      3302      3304      3278      3276      3302      3308
      3278      3283      3286      3287      3278      3283      3286      3288
      3278      3283      3286      3289      3279      3278      3276      3302
      3279      3278      3283      3284      3279      3278      3283      3285
      3279      3278      3283      3286      3280      3279      3278      3283
      3281      3279      3278      3283      3282      3279      3278      3283
      3283      3278      3276      3302      3283      3286      3289      3290
      3283      3286      3289      3291      3284      3283      3286      3287
      3284      3283      3286      3288      3284      3283      3286      3289
      3285      3283      3286      3287      3285      3283      3286      3288
      3285      3283      3286      3289      3286      3289      3291      3292
      3286      3289      3291      3296      3287      3286      3289      3290
      3287      3286      3289      3291      3288      3286      3289      3290
      3288      3286      3289      3291      3289      3291      3292      3293
      3289      3291      3292      3294      3289      3291      3292      3295
      3289      3291      3296      3297      3289      3291      3296      3298
      3289      3291      3296      3299      3290      3289      3291      3292
      3290      3289      3291      3296      3291      3296      3299      3300
      3291      3296      3299      3301      3292      3291      3296      3297
      3292      3291      3296      3298      3292      3291      3296      3299
      3293      3292      3291      3296      3294      3292      3291      3296
      3295      3292      3291      3296      3297      3296      3299      3300
      3297      3296      3299      3301      3298      3296      3299      3300
      3298      3296      3299      3301      3302      3308      3311      3312
      3302      3308      3311      3313      3302      3308      3311      3314
      3303      3302      3304      3305      3303      3302      3304      3306
      3303      3302      3304      3307      3303      3302      3308      3309
      3303      3302      3308      3310      3303      3302      3308      3311
      3304      3302      3308      3309      3304      3302      3308      3310
      3304      3302      3308      3311      3305      3304      3302      3308
      3306      3304      3302      3308      3307      3304      3302      3308
      3308      3311      3314      3315      3308      3311      3314      3316
      3308      3311      3314      3317      3309      3308      3311      3312
      3309      3308      3311      3313      3309      3308      3311      3314
      3310      3308      3311      3312      3310      3308      3311      3313
      3310      3308      3311      3314      3311      3314      3317      3318
      3311      3314      3317      3319      3311      3314      3317      3323
      3312      3311      3314      3315      3312      3311      3314      3316
      3312      3311      3314      3317      3313      3311      3314      3315
      3313      3311      3314      3316      3313      3311      3314      3317
      3314      3317      3319      3320      3314      3317      3319      3321
      3314      3317      3319      3322      3314      3317      3323      3324
      3314      3317      3323      3325      3314      3317      3323      3326
      3315      3314      3317      3318      3315      3314      3317      3319
      3315      3314      3317      3323      3316      3314      3317      3318
      3316      3314      3317      3319      3316      3314      3317      3323
      3318      3317      3319      3320      3318      3317      3319      3321
      3318      3317      3319      3322      3318      3317      3323      3324
      3318      3317      3323      3325      3318      3317      3323      3326
      3319      3317      3323      3324      3319      3317      3323      3325
      3319      3317      3323      3326      3320      3319      3317      3323
      3321      3319      3317      3323      3322      3319      3317      3323
     15821     15825     15828     15829     15821     15825     15828     15830
     15821     15825     15828     15834     15822     15821     15825     15826
     15822     15821     15825     15827     15822     15821     15825     15828
     15823     15821     15825     15826     15823     15821     15825     15827
     15823     15821     15825     15828     15824     15821     15825     15826
     15824     15821     15825     15827     15824     15821     15825     15828
     15825     15828     15834     15831     15826     15825     15828     15829
     15826     15825     15828     15830     15826     15825     15828     15834
     15827     15825     15828     15829     15827     15825     15828     15830
     15827     15825     15828     15834     15828     15834     15831     15832
     15828     15834     15831     15833     15828     15834     15831     15835
     15829     15828     15834     15831     15830     15828     15834     15831
     15831     15835     15836     15837     15831     15835     15836     15838
     15831     15835     15836     15839     15832     15831     15835     15836
     15833     15831     15835     15836     15834     15831     15835     15836
     15835     15836     15839     15840     15835     15836     15839     15841
     15835     15836     15839     15847     15836     15839     15841     15842
     15836     15839     15847     15848     15836     15839     15847     15849
     15836     15839     15847     15850     15837     15836     15839     15840
     15837     15836     15839     15841     15837     15836     15839     15847
     15838     15836     15839     15840     15838     15836     15839     15841
     15838     15836     15839     15847     15839     15841     15842     15843
     15839     15841     15842     15844     15839     15847     15850     15851
     15840     15839     15841     15842     15840     15839     15847     15848
     15840     15839     15847     15849     15840     15839     15847     15850
     15841     15839     15847     15848     15841     15839     15847     15849
     15841     15839     15847     15850     15841     15842     15844     15845
     15841     15842     15844     15846     15841     15842     15844     15856
     15842     15841     15839     15847     15842     15844     15856     15857
     15842     15844     15856     15858     15842     15844     15856     15859
     15843     15842     15844     15845     15843     15842     15844     15846
     15843     15842     15844     15856     15844     15856     15859     15860
     15844     15856     15859     15861     15844     15856     15859     15862
     15845     15844     15856     15857     15845     15844     15856     15858
     15845     15844     15856     15859     15846     15844     15856     15857
     15846     15844     15856     15858     15846     15844     15856     15859
     15847     15850     15851     15852     15847     15850     15851     15853
     15848     15847     15850     15851     15849     15847     15850     15851
     15850     15851     15853     15854     15850     15851     15853     15855
     15850     15851     15853     15903     15851     15853     15903     15904
     15851     15853     15903     15905     15851     15853     15903     15906
     15852     15851     15853     15854     15852     15851     15853     15855
     15852     15851     15853     15903     15853     15903     15906     15907
     15853     15903     15906     15908     15853     15903     15906     15909
     15854     15853     15903     15904     15854     15853     15903     15905
     15854     15853     15903     15906     15855     15853     15903     15904
     15855     15853     15903     15905     15855     15853     15903     15906
     15856     15859     15862     15863     15856     15859     15862     15864
     15857     15856     15859     15860     15857     15856     15859     15861
     15857     15856     15859     15862     15858     15856     15859     15860
     15858     15856     15859     15861     15858     15856     15859     15862
     15859     15862     15864     15865     15859     15862     15864     15866
     15860     15859     15862     15863     15860     15859     15862     15864
     15861     15859     15862     15863     15861     15859     15862     15864
     15862     15864     15866     15867     15862     15864     15866     15868
     15862     15864     15866     15869     15863     15862     15864     15865
     15863     15862     15864     15866     15864     15866     15869     15870
     15864     15866     15869     15871     15865     15864     15866     15867
     15865     15864     15866     15868     15865     15864     15866     15869
     15866     15869     15871     15872     15866     15869     15871     15873
     15867     15866     15869     15870     15867     15866     15869     15871
     15868     15866     15869     15870     15868     15866     15869     15871
     15869     15871     15873     15874     15869     15871     15873     15875
     15869     15871     15873     15876     15870     15869     15871     15872
     15870     15869     15871     15873     15871     15873     15876     15877
     15871     15873     15876     15878     15872     15871     15873     15874
     15872     15871     15873     15875     15872     15871     15873     15876
     15873     15876     15878     15879     15873     15876     15878     15880
     15874     15873     15876     15877     15874     15873     15876     15878
     15875     15873     15876     15877     15875     15873     15876     15878
     15876     15878     15880     15881     15876     15878     15880     15882
     15876     15878     15880     15883     15877     15876     15878     15879
     15877     15876     15878     15880     15878     15880     15883     15884
     15878     15880     15883     15885     15879     15878     15880     15881
     15879     15878     15880     15882     15879     15878     15880     15883
     15880     15883     15885     15886     15880     15883     15885     15887
     15881     15880     15883     15884     15881     15880     15883     15885
     15882     15880     15883     15884     15882     15880     15883     15885
     15883     15885     15887     15888     15883     15885     15887     15889
     15883     15885     15887     15890     15884     15883     15885     15886
     15884     15883     15885     15887     15885     15887     15890     15891
     15885     15887     15890     15892     15885     15887     15890     15893
     15886     15885     15887     15888     15886     15885     15887     15889
     15886     15885     15887     15890     15887     15890     15893     15894
     15887     15890     15893     15895     15887     15890     15893     15896
     15888     15887     15890     15891     15888     15887     15890     15892
     15888     15887     15890     15893     15889     15887     15890     15891
     15889     15887     15890     15892     15889     15887     15890     15893
     15890     15893     15896     15897     15890     15893     15896     15898
     15890     15893     15896     15899     15891     15890     15893     15894
     15891     15890     15893     15895     15891     15890     15893     15896
     15892     15890     15893     15894     15892     15890     15893     15895
     15892     15890     15893     15896     15893     15896     15899     15900
     15893     15896     15899     15901     15893     15896     15899     15902
     15894     15893     15896     15897     15894     15893     15896     15898
     15894     15893     15896     15899     15895     15893     15896     15897
     15895     15893     15896     15898     15895     15893     15896     15899
     15897     15896     15899     15900     15897     15896     15899     15901
     15897     15896     15899     15902     15898     15896     15899     15900
     15898     15896     15899     15901     15898     15896     15899     15902
     15903     15906     15909     15910     15903     15906     15909     15911
     15903     15906     15909     15912     15904     15903     15906     15907
     15904     15903     15906     15908     15904     15903     15906     15909
     15905     15903     15906     15907     15905     15903     15906     15908
     15905     15903     15906     15909     15906     15909     15912     15913
     15906     15909     15912     15914     15906     15909     15912     15915
     15907     15906     15909     15910     15907     15906     15909     15911
     15907     15906     15909     15912     15908     15906     15909     15910
     15908     15906     15909     15911     15908     15906     15909     15912
     15909     15912     15915     15916     15909     15912     15915     15917
     15909     15912     15915     15918     15910     15909     15912     15913
     15910     15909     15912     15914     15910     15909     15912     15915
     15911     15909     15912     15913     15911     15909     15912     15914
     15911     15909     15912     15915     15912     15915     15918     15919
     15912     15915     15918     15920     15912     15915     15918     15921
     15913     15912     15915     15916     15913     15912     15915     15917
     15913     15912     15915     15918     15914     15912     15915     15916
     15914     15912     15915     15917     15914     15912     15915     15918
     15915     15918     15921     15922     15915     15918     15921     15923
     15915     15918     15921     15924     15916     15915     15918     15919
     15916     15915     15918     15920     15916     15915     15918     15921
     15917     15915     15918     15919     15917     15915     15918     15920
     15917     15915     15918     15921     15918     15921     15924     15925
     15918     15921     15924     15926     15918     15921     15924     15927
     15919     15918     15921     15922     15919     15918     15921     15923
     15919     15918     15921     15924     15920     15918     15921     15922
     15920     15918     15921     15923     15920     15918     15921     15924
     15921     15924     15927     15928     15921     15924     15927     15929
     15921     15924     15927     15930     15922     15921     15924     15925
     15922     15921     15924     15926     15922     15921     15924     15927
     15923     15921     15924     15925     15923     15921     15924     15926
     15923     15921     15924     15927     15924     15927     15930     15931
     15924     15927     15930     15932     15924     15927     15930     15933
     15925     15924     15927     15928     15925     15924     15927     15929
     15925     15924     15927     15930     15926     15924     15927     15928
     15926     15924     15927     15929     15926     15924     15927     15930
     15927     15930     15933     15934     15927     15930     15933     15935
     15927     15930     15933     15936     15928     15927     15930     15931
     15928     15927     15930     15932     15928     15927     15930     15933
     15929     15927     15930     15931     15929     15927     15930     15932
     15929     15927     15930     15933     15930     15933     15936     15937
     15930     15933     15936     15938     15930     15933     15936     15939
     15931     15930     15933     15934     15931     15930     15933     15935
     15931     15930     15933     15936     15932     15930     15933     15934
     15932     15930     15933     15935     15932     15930     15933     15936
     15933     15936     15939     15940     15933     15936     15939     15941
     15933     15936     15939     15942     15934     15933     15936     15937
     15934     15933     15936     15938     15934     15933     15936     15939
     15935     15933     15936     15937     15935     15933     15936     15938
     15935     15933     15936     15939     15936     15939     15942     15943
     15936     15939     15942     15944     15936     15939     15942     15945
     15937     15936     15939     15940     15937     15936     15939     15941
     15937     15936     15939     15942     15938     15936     15939     15940
     15938     15936     15939     15941     15938     15936     15939     15942
     15939     15942     15945     15946     15939     15942     15945     15947
     15939     15942     15945     15948     15940     15939     15942     15943
     15940     15939     15942     15944     15940     15939     15942     15945
     15941     15939     15942     15943     15941     15939     15942     15944
     15941     15939     15942     15945     15942     15945     15948     15949
     15942     15945     15948     15950     15942     15945     15948     15951
     15943     15942     15945     15946     15943     15942     15945     15947
     15943     15942     15945     15948     15944     15942     15945     15946
     15944     15942     15945     15947     15944     15942     15945     15948
     15946     15945     15948     15949     15946     15945     15948     15950
     15946     15945     15948     15951     15947     15945     15948     15949
     15947     15945     15948     15950     15947     15945     15948     15951
      3327      3331      3334      3335      3327      3331      3334      3365
      3327      3373      3370      3365      3327      3373      3370      3371
      3327      3373      3370      3372      3328      3327      3329      3330
      3328      3327      3331      3332      3328      3327      3331      3333
      3328      3327      3331      3334      3328      3327      3373      3370
      3328      3327      3373      3374      3328      3327      3373      3375
      3329      3327      3331      3332      3329      3327      3331      3333
      3329      3327      3331      3334      3329      3327      3373      3370
      3329      3327      3373      3374      3329      3327      3373      3375
      3330      3329      3327      3331      3330      3329      3327      3373
      3331      3327      3373      3370      3331      3327      3373      3374
      3331      3327      3373      3375      3331      3334      3335      3336
      3331      3334      3335      3337      3331      3334      3365      3363
      3331      3334      3365      3366      3331      3334      3365      3370
      3332      3331      3327      3373      3332      3331      3334      3335
      3332      3331      3334      3365      3333      3331      3327      3373
      3333      3331      3334      3335      3333      3331      3334      3365
      3334      3331      3327      3373      3334      3335      3337      3338
      3334      3335      3337      3339      3334      3335      3337      3340
      3334      3365      3363      3340      3334      3365      3363      3360
      3334      3365      3363      3364      3334      3365      3366      3367
      3334      3365      3366      3368      3334      3365      3366      3369
      3334      3365      3370      3371      3334      3365      3370      3372
      3334      3365      3370      3373      3335      3334      3365      3363
      3335      3334      3365      3366      3335      3334      3365      3370
      3335      3337      3340      3341      3335      3337      3340      3342
      3335      3337      3340      3363      3336      3335      3334      3365
      3336      3335      3337      3338      3336      3335      3337      3339
      3336      3335      3337      3340      3337      3335      3334      3365
      3337      3340      3342      3343      3337      3340      3342      3344
      3337      3340      3342      3352      3337      3340      3363      3360
      3337      3340      3363      3364      3337      3340      3363      3365
      3338      3337      3340      3341      3338      3337      3340      3342
      3338      3337      3340      3363      3339      3337      3340      3341
      3339      3337      3340      3342      3339      3337      3340      3363
      3340      3342      3344      3345      3340      3342      3344      3346
      3340      3342      3344      3347      3340      3342      3352      3350
      3340      3342      3352      3353      3340      3342      3352      3357
      3340      3363      3360      3357      3340      3363      3360      3361
      3340      3363      3360      3362      3340      3363      3365      3366
      3340      3363      3365      3370      3341      3340      3342      3343
      3341      3340      3342      3344      3341      3340      3342      3352
      3341      3340      3363      3360      3341      3340      3363      3364
      3341      3340      3363      3365      3342      3340      3363      3360
      3342      3340      3363      3364      3342      3340      3363      3365
      3342      3344      3347      3348      3342      3344      3347      3349
      3342      3344      3347      3350      3342      3352      3350      3347
      3342      3352      3350      3351      3342      3352      3350      3376
      3342      3352      3353      3354      3342      3352      3353      3355
      3342      3352      3353      3356      3342      3352      3357      3358
      3342      3352      3357      3359      3342      3352      3357      3360
      3343      3342      3340      3363      3343      3342      3344      3345
      3343      3342      3344      3346      3343      3342      3344      3347
      3343      3342      3352      3350      3343      3342      3352      3353
      3343      3342      3352      3357      3344      3342      3340      3363
      3344      3342      3352      3350      3344      3342      3352      3353
      3344      3342      3352      3357      3344      3347      3350      3351
      3344      3347      3350      3352      3344      3347      3350      3376
      3345      3344      3342      3352      3345      3344      3347      3348
      3345      3344      3347      3349      3345      3344      3347      3350
      3346      3344      3342      3352      3346      3344      3347      3348
      3346      3344      3347      3349      3346      3344      3347      3350
      3347      3344      3342      3352      3347      3350      3352      3353
      3347      3350      3352      3357      3347      3350      3376      3377
      3347      3350      3376      3378      3347      3350      3376      3382
      3348      3347      3350      3351      3348      3347      3350      3352
      3348      3347      3350      3376      3349      3347      3350      3351
      3349      3347      3350      3352      3349      3347      3350      3376
      3350      3352      3353      3354      3350      3352      3353      3355
      3350      3352      3353      3356      3350      3352      3357      3358
      3350      3352      3357      3359      3350      3352      3357      3360
      3350      3376      3378      3379      3350      3376      3378      3380
      3350      3376      3378      3381      3350      3376      3382      3383
      3350      3376      3382      3384      3350      3376      3382      3385
      3351      3350      3352      3353      3351      3350      3352      3357
      3351      3350      3376      3377      3351      3350      3376      3378
      3351      3350      3376      3382      3352      3342      3340      3363
      3352      3350      3376      3377      3352      3350      3376      3378
      3352      3350      3376      3382      3352      3357      3360      3361
      3352      3357      3360      3362      3352      3357      3360      3363
      3353      3352      3350      3376      3353      3352      3357      3358
      3353      3352      3357      3359      3353      3352      3357      3360
      3354      3353      3352      3357      3355      3353      3352      3357
      3356      3353      3352      3357      3357      3352      3350      3376
      3357      3360      3363      3364      3357      3360      3363      3365
      3358      3357      3360      3361      3358      3357      3360      3362
      3358      3357      3360      3363      3359      3357      3360      3361
      3359      3357      3360      3362      3359      3357      3360      3363
      3360      3363      3365      3366      3360      3363      3365      3370
      3361      3360      3363      3364      3361      3360      3363      3365
      3362      3360      3363      3364      3362      3360      3363      3365
      3363      3365      3366      3367      3363      3365      3366      3368
      3363      3365      3366      3369      3363      3365      3370      3371
      3363      3365      3370      3372      3363      3365      3370      3373
      3364      3363      3365      3366      3364      3363      3365      3370
      3365      3370      3373      3374      3365      3370      3373      3375
      3366      3365      3370      3371      3366      3365      3370      3372
      3366      3365      3370      3373      3367      3366      3365      3370
      3368      3366      3365      3370      3369      3366      3365      3370
      3371      3370      3373      3374      3371      3370      3373      3375
      3372      3370      3373      3374      3372      3370      3373      3375
      3376      3382      3385      3386      3376      3382      3385      3387
      3376      3382      3385      3388      3377      3376      3378      3379
      3377      3376      3378      3380      3377      3376      3378      3381
      3377      3376      3382      3383      3377      3376      3382      3384
      3377      3376      3382      3385      3378      3376      3382      3383
      3378      3376      3382      3384      3378      3376      3382      3385
      3379      3378      3376      3382      3380      3378      3376      3382
      3381      3378      3376      3382      3382      3385      3388      3389
      3382      3385      3388      3390      3382      3385      3388      3391
      3383      3382      3385      3386      3383      3382      3385      3387
      3383      3382      3385      3388      3384      3382      3385      3386
      3384      3382      3385      3387      3384      3382      3385      3388
      3385      3388      3391      3392      3385      3388      3391      3393
      3385      3388      3391      3397      3386      3385      3388      3389
      3386      3385      3388      3390      3386      3385      3388      3391
      3387      3385      3388      3389      3387      3385      3388      3390
      3387      3385      3388      3391      3388      3391      3393      3394
      3388      3391      3393      3395      3388      3391      3393      3396
      3388      3391      3397      3398      3388      3391      3397      3399
      3388      3391      3397      3400      3389      3388      3391      3392
      3389      3388      3391      3393      3389      3388      3391      3397
      3390      3388      3391      3392      3390      3388      3391      3393
      3390      3388      3391      3397      3392      3391      3393      3394
      3392      3391      3393      3395      3392      3391      3393      3396
      3392      3391      3397      3398      3392      3391      3397      3399
      3392      3391      3397      3400      3393      3391      3397      3398
      3393      3391      3397      3399      3393      3391      3397      3400
      3394      3393      3391      3397      3395      3393      3391      3397
      3396      3393      3391      3397      7198      7202      7205      7206
      7198      7202      7205      7207      7198      7202      7205      7211
      7199      7198      7202      7203      7199      7198      7202      7204
      7199      7198      7202      7205      7200      7198      7202      7203
      7200      7198      7202      7204      7200      7198      7202      7205
      7201      7198      7202      7203      7201      7198      7202      7204
      7201      7198      7202      7205      7202      7205      7211      7208
      7203      7202      7205      7206      7203      7202      7205      7207
      7203      7202      7205      7211      7204      7202      7205      7206
      7204      7202      7205      7207      7204      7202      7205      7211
      7205      7211      7208      7209      7205      7211      7208      7210
      7205      7211      7208      7212      7206      7205      7211      7208
      7207      7205      7211      7208      7208      7212      7213      7214
      7208      7212      7213      7215      7208      7212      7213      7216
      7209      7208      7212      7213      7210      7208      7212      7213
      7211      7208      7212      7213      7212      7213      7216      7217
      7212      7213      7216      7218      7212      7213      7216      7224
      7213      7216      7218      7219      7213      7216      7224      7225
      7213      7216      7224      7226      7213      7216      7224      7227
      7214      7213      7216      7217      7214      7213      7216      7218
      7214      7213      7216      7224      7215      7213      7216      7217
      7215      7213      7216      7218      7215      7213      7216      7224
      7216      7218      7219      7220      7216      7218      7219      7221
      7216      7224      7227      7228      7217      7216      7218      7219
      7217      7216      7224      7225      7217      7216      7224      7226
      7217      7216      7224      7227      7218      7216      7224      7225
      7218      7216      7224      7226      7218      7216      7224      7227
      7218      7219      7221      7222      7218      7219      7221      7223
      7218      7219      7221      7233      7219      7218      7216      7224
      7219      7221      7233      7234      7219      7221      7233      7235
      7219      7221      7233      7236      7220      7219      7221      7222
      7220      7219      7221      7223      7220      7219      7221      7233
      7221      7233      7236      7237      7221      7233      7236      7238
      7221      7233      7236      7239      7222      7221      7233      7234
      7222      7221      7233      7235      7222      7221      7233      7236
      7223      7221      7233      7234      7223      7221      7233      7235
      7223      7221      7233      7236      7224      7227      7228      7229
      7224      7227      7228      7230      7225      7224      7227      7228
      7226      7224      7227      7228      7227      7228      7230      7231
      7227      7228      7230      7232      7227      7228      7230      7280
      7228      7230      7280      7281      7228      7230      7280      7282
      7228      7230      7280      7283      7229      7228      7230      7231
      7229      7228      7230      7232      7229      7228      7230      7280
      7230      7280      7283      7284      7230      7280      7283      7285
      7230      7280      7283      7286      7231      7230      7280      7281
      7231      7230      7280      7282      7231      7230      7280      7283
      7232      7230      7280      7281      7232      7230      7280      7282
      7232      7230      7280      7283      7233      7236      7239      7240
      7233      7236      7239      7241      7233      7236      7239      7242
      7234      7233      7236      7237      7234      7233      7236      7238
      7234      7233      7236      7239      7235      7233      7236      7237
      7235      7233      7236      7238      7235      7233      7236      7239
      7236      7239      7242      7243      7236      7239      7242      7244
      7236      7239      7242      7245      7237      7236      7239      7240
      7237      7236      7239      7241      7237      7236      7239      7242
      7238      7236      7239      7240      7238      7236      7239      7241
      7238      7236      7239      7242      7239      7242      7245      7246
      7239      7242      7245      7247      7239      7242      7245      7248
      7240      7239      7242      7243      7240      7239      7242      7244
      7240      7239      7242      7245      7241      7239      7242      7243
      7241      7239      7242      7244      7241      7239      7242      7245
      7242      7245      7248      7249      7242      7245      7248      7250
      7242      7245      7248      7251      7243      7242      7245      7246
      7243      7242      7245      7247      7243      7242      7245      7248
      7244      7242      7245      7246      7244      7242      7245      7247
      7244      7242      7245      7248      7245      7248      7251      7252
      7245      7248      7251      7253      7246      7245      7248      7249
      7246      7245      7248      7250      7246      7245      7248      7251
      7247      7245      7248      7249      7247      7245      7248      7250
      7247      7245      7248      7251      7248      7251      7253      7254
      7248      7251      7253      7255      7249      7248      7251      7252
      7249      7248      7251      7253      7250      7248      7251      7252
      7250      7248      7251      7253      7251      7253      7255      7256
      7251      7253      7255      7257      7251      7253      7255      7258
      7252      7251      7253      7254      7252      7251      7253      7255
      7253      7255      7258      7259      7253      7255      7258      7260
      7253      7255      7258      7261      7254      7253      7255      7256
      7254      7253      7255      7257      7254      7253      7255      7258
      7255      7258      7261      7262      7255      7258      7261      7263
      7255      7258      7261      7264      7256      7255      7258      7259
      7256      7255      7258      7260      7256      7255      7258      7261
      7257      7255      7258      7259      7257      7255      7258      7260
      7257      7255      7258      7261      7258      7261      7264      7265
      7258      7261      7264      7266      7258      7261      7264      7267
      7259      7258      7261      7262      7259      7258      7261      7263
      7259      7258      7261      7264      7260      7258      7261      7262
      7260      7258      7261      7263      7260      7258      7261      7264
      7261      7264      7267      7268      7261      7264      7267      7269
      7261      7264      7267      7270      7262      7261      7264      7265
      7262      7261      7264      7266      7262      7261      7264      7267
      7263      7261      7264      7265      7263      7261      7264      7266
      7263      7261      7264      7267      7264      7267      7270      7271
      7264      7267      7270      7272      7264      7267      7270      7273
      7265      7264      7267      7268      7265      7264      7267      7269
      7265      7264      7267      7270      7266      7264      7267      7268
      7266      7264      7267      7269      7266      7264      7267      7270
      7267      7270      7273      7274      7267      7270      7273      7275
      7267      7270      7273      7276      7268      7267      7270      7271
      7268      7267      7270      7272      7268      7267      7270      7273
      7269      7267      7270      7271      7269      7267      7270      7272
      7269      7267      7270      7273      7270      7273      7276      7277
      7270      7273      7276      7278      7270      7273      7276      7279
      7271      7270      7273      7274      7271      7270      7273      7275
      7271      7270      7273      7276      7272      7270      7273      7274
      7272      7270      7273      7275      7272      7270      7273      7276
      7274      7273      7276      7277      7274      7273      7276      7278
      7274      7273      7276      7279      7275      7273      7276      7277
      7275      7273      7276      7278      7275      7273      7276      7279
      7280      7283      7286      7287      7280      7283      7286      7288
      7280      7283      7286      7289      7281      7280      7283      7284
      7281      7280      7283      7285      7281      7280      7283      7286
      7282      7280      7283      7284      7282      7280      7283      7285
      7282      7280      7283      7286      7283      7286      7289      7290
      7283      7286      7289      7291      7283      7286      7289      7292
      7284      7283      7286      7287      7284      7283      7286      7288
      7284      7283      7286      7289      7285      7283      7286      7287
      7285      7283      7286      7288      7285      7283      7286      7289
      7286      7289      7292      7293      7286      7289      7292      7294
      7286      7289      7292      7295      7287      7286      7289      7290
      7287      7286      7289      7291      7287      7286      7289      7292
      7288      7286      7289      7290      7288      7286      7289      7291
      7288      7286      7289      7292      7289      7292      7295      7296
      7289      7292      7295      7297      7289      7292      7295      7298
      7290      7289      7292      7293      7290      7289      7292      7294
      7290      7289      7292      7295      7291      7289      7292      7293
      7291      7289      7292      7294      7291      7289      7292      7295
      7292      7295      7298      7299      7292      7295      7298      7300
      7292      7295      7298      7301      7293      7292      7295      7296
      7293      7292      7295      7297      7293      7292      7295      7298
      7294      7292      7295      7296      7294      7292      7295      7297
      7294      7292      7295      7298      7295      7298      7301      7302
      7295      7298      7301      7303      7295      7298      7301      7304
      7296      7295      7298      7299      7296      7295      7298      7300
      7296      7295      7298      7301      7297      7295      7298      7299
      7297      7295      7298      7300      7297      7295      7298      7301
      7298      7301      7304      7305      7298      7301      7304      7306
      7298      7301      7304      7307      7299      7298      7301      7302
      7299      7298      7301      7303      7299      7298      7301      7304
      7300      7298      7301      7302      7300      7298      7301      7303
      7300      7298      7301      7304      7301      7304      7307      7308
      7301      7304      7307      7309      7301      7304      7307      7310
      7302      7301      7304      7305      7302      7301      7304      7306
      7302      7301      7304      7307      7303      7301      7304      7305
      7303      7301      7304      7306      7303      7301      7304      7307
      7304      7307      7310      7311      7304      7307      7310      7312
      7304      7307      7310      7313      7305      7304      7307      7308
      7305      7304      7307      7309      7305      7304      7307      7310
      7306      7304      7307      7308      7306      7304      7307      7309
      7306      7304      7307      7310      7307      7310      7313      7314
      7307      7310      7313      7315      7307      7310      7313      7316
      7308      7307      7310      7311      7308      7307      7310      7312
      7308      7307      7310      7313      7309      7307      7310      7311
      7309      7307      7310      7312      7309      7307      7310      7313
      7310      7313      7316      7317      7310      7313      7316      7318
      7310      7313      7316      7319      7311      7310      7313      7314
      7311      7310      7313      7315      7311      7310      7313      7316
      7312      7310      7313      7314      7312      7310      7313      7315
      7312      7310      7313      7316      7313      7316      7319      7320
      7313      7316      7319      7321      7313      7316      7319      7322
      7314      7313      7316      7317      7314      7313      7316      7318
      7314      7313      7316      7319      7315      7313      7316      7317
      7315      7313      7316      7318      7315      7313      7316      7319
      7316      7319      7322      7323      7316      7319      7322      7324
      7316      7319      7322      7325      7317      7316      7319      7320
      7317      7316      7319      7321      7317      7316      7319      7322
      7318      7316      7319      7320      7318      7316      7319      7321
      7318      7316      7319      7322      7319      7322      7325      7326
      7319      7322      7325      7327      7319      7322      7325      7328
      7320      7319      7322      7323      7320      7319      7322      7324
      7320      7319      7322      7325      7321      7319      7322      7323
      7321      7319      7322      7324      7321      7319      7322      7325
      7323      7322      7325      7326      7323      7322      7325      7327
      7323      7322      7325      7328      7324      7322      7325      7326
      7324      7322      7325      7327      7324      7322      7325      7328
     15952     15956     15959     15960     15952     15956     15959     15961
     15952     15956     15959     15965     15953     15952     15956     15957
     15953     15952     15956     15958     15953     15952     15956     15959
     15954     15952     15956     15957     15954     15952     15956     15958
     15954     15952     15956     15959     15955     15952     15956     15957
     15955     15952     15956     15958     15955     15952     15956     15959
     15956     15959     15965     15962     15957     15956     15959     15960
     15957     15956     15959     15961     15957     15956     15959     15965
     15958     15956     15959     15960     15958     15956     15959     15961
     15958     15956     15959     15965     15959     15965     15962     15963
     15959     15965     15962     15964     15959     15965     15962     15966
     15960     15959     15965     15962     15961     15959     15965     15962
     15962     15966     15967     15968     15962     15966     15967     15969
     15962     15966     15967     15970     15963     15962     15966     15967
     15964     15962     15966     15967     15965     15962     15966     15967
     15966     15967     15970     15971     15966     15967     15970     15972
     15966     15967     15970     15978     15967     15970     15972     15973
     15967     15970     15978     15979     15967     15970     15978     15980
     15967     15970     15978     15981     15968     15967     15970     15971
     15968     15967     15970     15972     15968     15967     15970     15978
     15969     15967     15970     15971     15969     15967     15970     15972
     15969     15967     15970     15978     15970     15972     15973     15974
     15970     15972     15973     15975     15970     15978     15981     15982
     15971     15970     15972     15973     15971     15970     15978     15979
     15971     15970     15978     15980     15971     15970     15978     15981
     15972     15970     15978     15979     15972     15970     15978     15980
     15972     15970     15978     15981     15972     15973     15975     15976
     15972     15973     15975     15977     15972     15973     15975     15987
     15973     15972     15970     15978     15973     15975     15987     15988
     15973     15975     15987     15989     15973     15975     15987     15990
     15974     15973     15975     15976     15974     15973     15975     15977
     15974     15973     15975     15987     15975     15987     15990     15991
     15975     15987     15990     15992     15975     15987     15990     15993
     15976     15975     15987     15988     15976     15975     15987     15989
     15976     15975     15987     15990     15977     15975     15987     15988
     15977     15975     15987     15989     15977     15975     15987     15990
     15978     15981     15982     15983     15978     15981     15982     15984
     15979     15978     15981     15982     15980     15978     15981     15982
     15981     15982     15984     15985     15981     15982     15984     15986
     15981     15982     15984     16034     15982     15984     16034     16035
     15982     15984     16034     16036     15982     15984     16034     16037
     15983     15982     15984     15985     15983     15982     15984     15986
     15983     15982     15984     16034     15984     16034     16037     16038
     15984     16034     16037     16039     15984     16034     16037     16040
     15985     15984     16034     16035     15985     15984     16034     16036
     15985     15984     16034     16037     15986     15984     16034     16035
     15986     15984     16034     16036     15986     15984     16034     16037
     15987     15990     15993     15994     15987     15990     15993     15995
     15988     15987     15990     15991     15988     15987     15990     15992
     15988     15987     15990     15993     15989     15987     15990     15991
     15989     15987     15990     15992     15989     15987     15990     15993
     15990     15993     15995     15996     15990     15993     15995     15997
     15991     15990     15993     15994     15991     15990     15993     15995
     15992     15990     15993     15994     15992     15990     15993     15995
     15993     15995     15997     15998     15993     15995     15997     15999
     15993     15995     15997     16000     15994     15993     15995     15996
     15994     15993     15995     15997     15995     15997     16000     16001
     15995     15997     16000     16002     15996     15995     15997     15998
     15996     15995     15997     15999     15996     15995     15997     16000
     15997     16000     16002     16003     15997     16000     16002     16004
     15998     15997     16000     16001     15998     15997     16000     16002
     15999     15997     16000     16001     15999     15997     16000     16002
     16000     16002     16004     16005     16000     16002     16004     16006
     16000     16002     16004     16007     16001     16000     16002     16003
     16001     16000     16002     16004     16002     16004     16007     16008
     16002     16004     16007     16009     16003     16002     16004     16005
     16003     16002     16004     16006     16003     16002     16004     16007
     16004     16007     16009     16010     16004     16007     16009     16011
     16005     16004     16007     16008     16005     16004     16007     16009
     16006     16004     16007     16008     16006     16004     16007     16009
     16007     16009     16011     16012     16007     16009     16011     16013
     16007     16009     16011     16014     16008     16007     16009     16010
     16008     16007     16009     16011     16009     16011     16014     16015
     16009     16011     16014     16016     16010     16009     16011     16012
     16010     16009     16011     16013     16010     16009     16011     16014
     16011     16014     16016     16017     16011     16014     16016     16018
     16012     16011     16014     16015     16012     16011     16014     16016
     16013     16011     16014     16015     16013     16011     16014     16016
     16014     16016     16018     16019     16014     16016     16018     16020
     16014     16016     16018     16021     16015     16014     16016     16017
     16015     16014     16016     16018     16016     16018     16021     16022
     16016     16018     16021     16023     16016     16018     16021     16024
     16017     16016     16018     16019     16017     16016     16018     16020
     16017     16016     16018     16021     16018     16021     16024     16025
     16018     16021     16024     16026     16018     16021     16024     16027
     16019     16018     16021     16022     16019     16018     16021     16023
     16019     16018     16021     16024     16020     16018     16021     16022
     16020     16018     16021     16023     16020     16018     16021     16024
     16021     16024     16027     16028     16021     16024     16027     16029
     16021     16024     16027     16030     16022     16021     16024     16025
     16022     16021     16024     16026     16022     16021     16024     16027
     16023     16021     16024     16025     16023     16021     16024     16026
     16023     16021     16024     16027     16024     16027     16030     16031
     16024     16027     16030     16032     16024     16027     16030     16033
     16025     16024     16027     16028     16025     16024     16027     16029
     16025     16024     16027     16030     16026     16024     16027     16028
     16026     16024     16027     16029     16026     16024     16027     16030
     16028     16027     16030     16031     16028     16027     16030     16032
     16028     16027     16030     16033     16029     16027     16030     16031
     16029     16027     16030     16032     16029     16027     16030     16033
     16034     16037     16040     16041     16034     16037     16040     16042
     16034     16037     16040     16043     16035     16034     16037     16038
     16035     16034     16037     16039     16035     16034     16037     16040
     16036     16034     16037     16038     16036     16034     16037     16039
     16036     16034     16037     16040     16037     16040     16043     16044
     16037     16040     16043     16045     16037     16040     16043     16046
     16038     16037     16040     16041     16038     16037     16040     16042
     16038     16037     16040     16043     16039     16037     16040     16041
     16039     16037     16040     16042     16039     16037     16040     16043
     16040     16043     16046     16047     16040     16043     16046     16048
     16040     16043     16046     16049     16041     16040     16043     16044
     16041     16040     16043     16045     16041     16040     16043     16046
     16042     16040     16043     16044     16042     16040     16043     16045
     16042     16040     16043     16046     16043     16046     16049     16050
     16043     16046     16049     16051     16043     16046     16049     16052
     16044     16043     16046     16047     16044     16043     16046     16048
     16044     16043     16046     16049     16045     16043     16046     16047
     16045     16043     16046     16048     16045     16043     16046     16049
     16046     16049     16052     16053     16046     16049     16052     16054
     16046     16049     16052     16055     16047     16046     16049     16050
     16047     16046     16049     16051     16047     16046     16049     16052
     16048     16046     16049     16050     16048     16046     16049     16051
     16048     16046     16049     16052     16049     16052     16055     16056
     16049     16052     16055     16057     16049     16052     16055     16058
     16050     16049     16052     16053     16050     16049     16052     16054
     16050     16049     16052     16055     16051     16049     16052     16053
     16051     16049     16052     16054     16051     16049     16052     16055
     16052     16055     16058     16059     16052     16055     16058     16060
     16052     16055     16058     16061     16053     16052     16055     16056
     16053     16052     16055     16057     16053     16052     16055     16058
     16054     16052     16055     16056     16054     16052     16055     16057
     16054     16052     16055     16058     16055     16058     16061     16062
     16055     16058     16061     16063     16055     16058     16061     16064
     16056     16055     16058     16059     16056     16055     16058     16060
     16056     16055     16058     16061     16057     16055     16058     16059
     16057     16055     16058     16060     16057     16055     16058     16061
     16058     16061     16064     16065     16058     16061     16064     16066
     16058     16061     16064     16067     16059     16058     16061     16062
     16059     16058     16061     16063     16059     16058     16061     16064
     16060     16058     16061     16062     16060     16058     16061     16063
     16060     16058     16061     16064     16061     16064     16067     16068
     16061     16064     16067     16069     16061     16064     16067     16070
     16062     16061     16064     16065     16062     16061     16064     16066
     16062     16061     16064     16067     16063     16061     16064     16065
     16063     16061     16064     16066     16063     16061     16064     16067
     16064     16067     16070     16071     16064     16067     16070     16072
     16064     16067     16070     16073     16065     16064     16067     16068
     16065     16064     16067     16069     16065     16064     16067     16070
     16066     16064     16067     16068     16066     16064     16067     16069
     16066     16064     16067     16070     16067     16070     16073     16074
     16067     16070     16073     16075     16067     16070     16073     16076
     16068     16067     16070     16071     16068     16067     16070     16072
     16068     16067     16070     16073     16069     16067     16070     16071
     16069     16067     16070     16072     16069     16067     16070     16073
     16070     16073     16076     16077     16070     16073     16076     16078
     16070     16073     16076     16079     16071     16070     16073     16074
     16071     16070     16073     16075     16071     16070     16073     16076
     16072     16070     16073     16074     16072     16070     16073     16075
     16072     16070     16073     16076     16073     16076     16079     16080
     16073     16076     16079     16081     16073     16076     16079     16082
     16074     16073     16076     16077     16074     16073     16076     16078
     16074     16073     16076     16079     16075     16073     16076     16077
     16075     16073     16076     16078     16075     16073     16076     16079
     16077     16076     16079     16080     16077     16076     16079     16081
     16077     16076     16079     16082     16078     16076     16079     16080
     16078     16076     16079     16081     16078     16076     16079     16082
       134       138       140       141       134       138       140       142
       134       138       143       144       134       138       143       145
       134       138       143       149       135       134       138       139
       135       134       138       140       135       134       138       143
       136       134       138       139       136       134       138       140
       136       134       138       143       137       134       138       139
       137       134       138       140       137       134       138       143
       138       143       149       146       139       138       140       141
       139       138       140       142       139       138       143       144
       139       138       143       145       139       138       143       149
       140       138       143       144       140       138       143       145
       140       138       143       149       141       140       138       143
       142       140       138       143       143       149       146       147
       143       149       146       148       143       149       146       150
       144       143       149       146       145       143       149       146
       146       150       151       152       146       150       151       153
       146       150       151       154       147       146       150       151
       148       146       150       151       149       146       150       151
       150       151       154       155       150       151       154       156
       150       151       154       162       151       154       156       157
       151       154       162       163       151       154       162       164
       151       154       162       165       152       151       154       155
       152       151       154       156       152       151       154       162
       153       151       154       155       153       151       154       156
       153       151       154       162       154       156       157       158
       154       156       157       159       154       162       165       166
       155       154       156       157       155       154       162       163
       155       154       162       164       155       154       162       165
       156       154       162       163       156       154       162       164
       156       154       162       165       156       157       159       160
       156       157       159       161       156       157       159       171
       157       156       154       162       157       159       171       172
       157       159       171       173       157       159       171       174
       158       157       159       160       158       157       159       161
       158       157       159       171       159       171       174       175
       159       171       174       176       159       171       174       177
       160       159       171       172       160       159       171       173
       160       159       171       174       161       159       171       172
       161       159       171       173       161       159       171       174
       162       165       166       167       162       165       166       168
       163       162       165       166       164       162       165       166
       165       166       168       169       165       166       168       170
       165       166       168       218       166       168       218       219
       166       168       218       220       166       168       218       221
       167       166       168       169       167       166       168       170
       167       166       168       218       168       218       221       222
       168       218       221       223       168       218       221       224
       169       168       218       219       169       168       218       220
       169       168       218       221       170       168       218       219
       170       168       218       220       170       168       218       221
       171       174       177       178       171       174       177       179
       172       171       174       175       172       171       174       176
       172       171       174       177       173       171       174       175
       173       171       174       176       173       171       174       177
       174       177       179       180       174       177       179       181
       175       174       177       178       175       174       177       179
       176       174       177       178       176       174       177       179
       177       179       181       182       177       179       181       183
       177       179       181       184       178       177       179       180
       178       177       179       181       179       181       184       185
       179       181       184       186       180       179       181       182
       180       179       181       183       180       179       181       184
       181       184       186       187       181       184       186       188
       182       181       184       185       182       181       184       186
       183       181       184       185       183       181       184       186
       184       186       188       189       184       186       188       190
       184       186       188       191       185       184       186       187
       185       184       186       188       186       188       191       192
       186       188       191       193       187       186       188       189
       187       186       188       190       187       186       188       191
       188       191       193       194       188       191       193       195
       189       188       191       192       189       188       191       193
       190       188       191       192       190       188       191       193
       191       193       195       196       191       193       195       197
       191       193       195       198       192       191       193       194
       192       191       193       195       193       195       198       199
       193       195       198       200       194       193       195       196
       194       193       195       197       194       193       195       198
       195       198       200       201       195       198       200       202
       196       195       198       199       196       195       198       200
       197       195       198       199       197       195       198       200
       198       200       202       203       198       200       202       204
       198       200       202       205       199       198       200       201
       199       198       200       202       200       202       205       206
       200       202       205       207       200       202       205       208
       201       200       202       203       201       200       202       204
       201       200       202       205       202       205       208       209
       202       205       208       210       202       205       208       211
       203       202       205       206       203       202       205       207
       203       202       205       208       204       202       205       206
       204       202       205       207       204       202       205       208
       205       208       211       212       205       208       211       213
       205       208       211       214       206       205       208       209
       206       205       208       210       206       205       208       211
       207       205       208       209       207       205       208       210
       207       205       208       211       208       211       214       215
       208       211       214       216       208       211       214       217
       209       208       211       212       209       208       211       213
       209       208       211       214       210       208       211       212
       210       208       211       213       210       208       211       214
       212       211       214       215       212       211       214       216
       212       211       214       217       213       211       214       215
       213       211       214       216       213       211       214       217
       218       221       224       225       218       221       224       226
       218       221       224       227       219       218       221       222
       219       218       221       223       219       218       221       224
       220       218       221       222       220       218       221       223
       220       218       221       224       221       224       227       228
       221       224       227       229       221       224       227       230
       222       221       224       225       222       221       224       226
       222       221       224       227       223       221       224       225
       223       221       224       226       223       221       224       227
       224       227       230       231       224       227       230       232
       224       227       230       233       225       224       227       228
       225       224       227       229       225       224       227       230
       226       224       227       228       226       224       227       229
       226       224       227       230       227       230       233       234
       227       230       233       235       227       230       233       236
       228       227       230       231       228       227       230       232
       228       227       230       233       229       227       230       231
       229       227       230       232       229       227       230       233
       230       233       236       237       230       233       236       238
       230       233       236       239       231       230       233       234
       231       230       233       235       231       230       233       236
       232       230       233       234       232       230       233       235
       232       230       233       236       233       236       239       240
       233       236       239       241       233       236       239       242
       234       233       236       237       234       233       236       238
       234       233       236       239       235       233       236       237
       235       233       236       238       235       233       236       239
       236       239       242       243       236       239       242       244
       236       239       242       245       237       236       239       240
       237       236       239       241       237       236       239       242
       238       236       239       240       238       236       239       241
       238       236       239       242       239       242       245       246
       239       242       245       247       239       242       245       248
       240       239       242       243       240       239       242       244
       240       239       242       245       241       239       242       243
       241       239       242       244       241       239       242       245
       242       245       248       249       242       245       248       250
       242       245       248       251       243       242       245       246
       243       242       245       247       243       242       245       248
       244       242       245       246       244       242       245       247
       244       242       245       248       245       248       251       252
       245       248       251       253       245       248       251       254
       246       245       248       249       246       245       248       250
       246       245       248       251       247       245       248       249
       247       245       248       250       247       245       248       251
       248       251       254       255       248       251       254       256
       248       251       254       257       249       248       251       252
       249       248       251       253       249       248       251       254
       250       248       251       252       250       248       251       253
       250       248       251       254       251       254       257       258
       251       254       257       259       251       254       257       260
       252       251       254       255       252       251       254       256
       252       251       254       257       253       251       254       255
       253       251       254       256       253       251       254       257
       254       257       260       261       254       257       260       262
       254       257       260       263       255       254       257       258
       255       254       257       259       255       254       257       260
       256       254       257       258       256       254       257       259
       256       254       257       260       257       260       263       264
       257       260       263       265       257       260       263       266
       258       257       260       261       258       257       260       262
       258       257       260       263       259       257       260       261
       259       257       260       262       259       257       260       263
       261       260       263       264       261       260       263       265
       261       260       263       266       262       260       263       264
       262       260       263       265       262       260       263       266
       267       271       273       274       267       271       273       275
       267       271       276       277       267       271       276       278
       267       271       276       282       268       267       271       272
       268       267       271       273       268       267       271       276
       269       267       271       272       269       267       271       273
       269       267       271       276       270       267       271       272
       270       267       271       273       270       267       271       276
       271       276       282       279       272       271       273       274
       272       271       273       275       272       271       276       277
       272       271       276       278       272       271       276       282
       273       271       276       277       273       271       276       278
       273       271       276       282       274       273       271       276
       275       273       271       276       276       282       279       280
       276       282       279       281       276       282       279       283
       277       276       282       279       278       276       282       279
       279       283       284       285       279       283       284       286
       279       283       284       287       280       279       283       284
       281       279       283       284       282       279       283       284
       283       284       287       288       283       284       287       289
       283       284       287       295       284       287       289       290
       284       287       295       296       284       287       295       297
       284       287       295       298       285       284       287       288
       285       284       287       289       285       284       287       295
       286       284       287       288       286       284       287       289
       286       284       287       295       287       289       290       291
       287       289       290       292       287       295       298       299
       288       287       289       290       288       287       295       296
       288       287       295       297       288       287       295       298
       289       287       295       296       289       287       295       297
       289       287       295       298       289       290       292       293
       289       290       292       294       289       290       292       304
       290       289       287       295       290       292       304       305
       290       292       304       306       290       292       304       307
       291       290       292       293       291       290       292       294
       291       290       292       304       292       304       307       308
       292       304       307       309       292       304       307       310
       293       292       304       305       293       292       304       306
       293       292       304       307       294       292       304       305
       294       292       304       306       294       292       304       307
       295       298       299       300       295       298       299       301
       296       295       298       299       297       295       298       299
       298       299       301       302       298       299       301       303
       298       299       301       351       299       301       351       352
       299       301       351       353       299       301       351       354
       300       299       301       302       300       299       301       303
       300       299       301       351       301       351       354       355
       301       351       354       356       301       351       354       357
       302       301       351       352       302       301       351       353
       302       301       351       354       303       301       351       352
       303       301       351       353       303       301       351       354
       304       307       310       311       304       307       310       312
       305       304       307       308       305       304       307       309
       305       304       307       310       306       304       307       308
       306       304       307       309       306       304       307       310
       307       310       312       313       307       310       312       314
       308       307       310       311       308       307       310       312
       309       307       310       311       309       307       310       312
       310       312       314       315       310       312       314       316
       310       312       314       317       311       310       312       313
       311       310       312       314       312       314       317       318
       312       314       317       319       313       312       314       315
       313       312       314       316       313       312       314       317
       314       317       319       320       314       317       319       321
       315       314       317       318       315       314       317       319
       316       314       317       318       316       314       317       319
       317       319       321       322       317       319       321       323
       317       319       321       324       318       317       319       320
       318       317       319       321       319       321       324       325
       319       321       324       326       320       319       321       322
       320       319       321       323       320       319       321       324
       321       324       326       327       321       324       326       328
       322       321       324       325       322       321       324       326
       323       321       324       325       323       321       324       326
       324       326       328       329       324       326       328       330
       324       326       328       331       325       324       326       327
       325       324       326       328       326       328       331       332
       326       328       331       333       327       326       328       329
       327       326       328       330       327       326       328       331
       328       331       333       334       328       331       333       335
       329       328       331       332       329       328       331       333
       330       328       331       332       330       328       331       333
       331       333       335       336       331       333       335       337
       331       333       335       338       332       331       333       334
       332       331       333       335       333       335       338       339
       333       335       338       340       333       335       338       341
       334       333       335       336       334       333       335       337
       334       333       335       338       335       338       341       342
       335       338       341       343       335       338       341       344
       336       335       338       339       336       335       338       340
       336       335       338       341       337       335       338       339
       337       335       338       340       337       335       338       341
       338       341       344       345       338       341       344       346
       338       341       344       347       339       338       341       342
       339       338       341       343       339       338       341       344
       340       338       341       342       340       338       341       343
       340       338       341       344       341       344       347       348
       341       344       347       349       341       344       347       350
       342       341       344       345       342       341       344       346
       342       341       344       347       343       341       344       345
       343       341       344       346       343       341       344       347
       345       344       347       348       345       344       347       349
       345       344       347       350       346       344       347       348
       346       344       347       349       346       344       347       350
       351       354       357       358       351       354       357       359
       351       354       357       360       352       351       354       355
       352       351       354       356       352       351       354       357
       353       351       354       355       353       351       354       356
       353       351       354       357       354       357       360       361
       354       357       360       362       354       357       360       363
       355       354       357       358       355       354       357       359
       355       354       357       360       356       354       357       358
       356       354       357       359       356       354       357       360
       357       360       363       364       357       360       363       365
       357       360       363       366       358       357       360       361
       358       357       360       362       358       357       360       363
       359       357       360       361       359       357       360       362
       359       357       360       363       360       363       366       367
       360       363       366       368       360       363       366       369
       361       360       363       364       361       360       363       365
       361       360       363       366       362       360       363       364
       362       360       363       365       362       360       363       366
       363       366       369       370       363       366       369       371
       363       366       369       372       364       363       366       367
       364       363       366       368       364       363       366       369
       365       363       366       367       365       363       366       368
       365       363       366       369       366       369       372       373
       366       369       372       374       366       369       372       375
       367       366       369       370       367       366       369       371
       367       366       369       372       368       366       369       370
       368       366       369       371       368       366       369       372
       369       372       375       376       369       372       375       377
       369       372       375       378       370       369       372       373
       370       369       372       374       370       369       372       375
       371       369       372       373       371       369       372       374
       371       369       372       375       372       375       378       379
       372       375       378       380       372       375       378       381
       373       372       375       376       373       372       375       377
       373       372       375       378       374       372       375       376
       374       372       375       377       374       372       375       378
       375       378       381       382       375       378       381       383
       375       378       381       384       376       375       378       379
       376       375       378       380       376       375       378       381
       377       375       378       379       377       375       378       380
       377       375       378       381       378       381       384       385
       378       381       384       386       378       381       384       387
       379       378       381       382       379       378       381       383
       379       378       381       384       380       378       381       382
       380       378       381       383       380       378       381       384
       381       384       387       388       381       384       387       389
       381       384       387       390       382       381       384       385
       382       381       384       386       382       381       384       387
       383       381       384       385       383       381       384       386
       383       381       384       387       384       387       390       391
       384       387       390       392       384       387       390       393
       385       384       387       388       385       384       387       389
       385       384       387       390       386       384       387       388
       386       384       387       389       386       384       387       390
       387       390       393       394       387       390       393       395
       387       390       393       396       388       387       390       391
       388       387       390       392       388       387       390       393
       389       387       390       391       389       387       390       392
       389       387       390       393       390       393       396       397
       390       393       396       398       390       393       396       399
       391       390       393       394       391       390       393       395
       391       390       393       396       392       390       393       394
       392       390       393       395       392       390       393       396
       394       393       396       397       394       393       396       398
       394       393       396       399       395       393       396       397
       395       393       396       398       395       393       396       399
       400       404       406       407       400       404       406       408
       400       404       409       410       400       404       409       411
       400       404       409       415       401       400       404       405
       401       400       404       406       401       400       404       409
       402       400       404       405       402       400       404       406
       402       400       404       409       403       400       404       405
       403       400       404       406       403       400       404       409
       404       409       415       412       405       404       406       407
       405       404       406       408       405       404       409       410
       405       404       409       411       405       404       409       415
       406       404       409       410       406       404       409       411
       406       404       409       415       407       406       404       409
       408       406       404       409       409       415       412       413
       409       415       412       414       409       415       412       416
       410       409       415       412       411       409       415       412
       412       416       417       418       412       416       417       419
       412       416       417       420       413       412       416       417
       414       412       416       417       415       412       416       417
       416       417       420       421       416       417       420       422
       416       417       420       428       417       420       422       423
       417       420       428       429       417       420       428       430
       417       420       428       431       418       417       420       421
       418       417       420       422       418       417       420       428
       419       417       420       421       419       417       420       422
       419       417       420       428       420       422       423       424
       420       422       423       425       420       428       431       432
       421       420       422       423       421       420       428       429
       421       420       428       430       421       420       428       431
       422       420       428       429       422       420       428       430
       422       420       428       431       422       423       425       426
       422       423       425       427       422       423       425       437
       423       422       420       428       423       425       437       438
       423       425       437       439       423       425       437       440
       424       423       425       426       424       423       425       427
       424       423       425       437       425       437       440       441
       425       437       440       442       425       437       440       443
       426       425       437       438       426       425       437       439
       426       425       437       440       427       425       437       438
       427       425       437       439       427       425       437       440
       428       431       432       433       428       431       432       434
       429       428       431       432       430       428       431       432
       431       432       434       435       431       432       434       436
       431       432       434       484       432       434       484       485
       432       434       484       486       432       434       484       487
       433       432       434       435       433       432       434       436
       433       432       434       484       434       484       487       488
       434       484       487       489       434       484       487       490
       435       434       484       485       435       434       484       486
       435       434       484       487       436       434       484       485
       436       434       484       486       436       434       484       487
       437       440       443       444       437       440       443       445
       438       437       440       441       438       437       440       442
       438       437       440       443       439       437       440       441
       439       437       440       442       439       437       440       443
       440       443       445       446       440       443       445       447
       441       440       443       444       441       440       443       445
       442       440       443       444       442       440       443       445
       443       445       447       448       443       445       447       449
       443       445       447       450       444       443       445       446
       444       443       445       447       445       447       450       451
       445       447       450       452       446       445       447       448
       446       445       447       449       446       445       447       450
       447       450       452       453       447       450       452       454
       448       447       450       451       448       447       450       452
       449       447       450       451       449       447       450       452
       450       452       454       455       450       452       454       456
       450       452       454       457       451       450       452       453
       451       450       452       454       452       454       457       458
       452       454       457       459       453       452       454       455
       453       452       454       456       453       452       454       457
       454       457       459       460       454       457       459       461
       455       454       457       458       455       454       457       459
       456       454       457       458       456       454       457       459
       457       459       461       462       457       459       461       463
       457       459       461       464       458       457       459       460
       458       457       459       461       459       461       464       465
       459       461       464       466       460       459       461       462
       460       459       461       463       460       459       461       464
       461       464       466       467       461       464       466       468
       462       461       464       465       462       461       464       466
       463       461       464       465       463       461       464       466
       464       466       468       469       464       466       468       470
       464       466       468       471       465       464       466       467
       465       464       466       468       466       468       471       472
       466       468       471       473       466       468       471       474
       467       466       468       469       467       466       468       470
       467       466       468       471       468       471       474       475
       468       471       474       476       468       471       474       477
       469       468       471       472       469       468       471       473
       469       468       471       474       470       468       471       472
       470       468       471       473       470       468       471       474
       471       474       477       478       471       474       477       479
       471       474       477       480       472       471       474       475
       472       471       474       476       472       471       474       477
       473       471       474       475       473       471       474       476
       473       471       474       477       474       477       480       481
       474       477       480       482       474       477       480       483
       475       474       477       478       475       474       477       479
       475       474       477       480       476       474       477       478
       476       474       477       479       476       474       477       480
       478       477       480       481       478       477       480       482
       478       477       480       483       479       477       480       481
       479       477       480       482       479       477       480       483
       484       487       490       491       484       487       490       492
       484       487       490       493       485       484       487       488
       485       484       487       489       485       484       487       490
       486       484       487       488       486       484       487       489
       486       484       487       490       487       490       493       494
       487       490       493       495       487       490       493       496
       488       487       490       491       488       487       490       492
       488       487       490       493       489       487       490       491
       489       487       490       492       489       487       490       493
       490       493       496       497       490       493       496       498
       490       493       496       499       491       490       493       494
       491       490       493       495       491       490       493       496
       492       490       493       494       492       490       493       495
       492       490       493       496       493       496       499       500
       493       496       499       501       493       496       499       502
       494       493       496       497       494       493       496       498
       494       493       496       499       495       493       496       497
       495       493       496       498       495       493       496       499
       496       499       502       503       496       499       502       504
       496       499       502       505       497       496       499       500
       497       496       499       501       497       496       499       502
       498       496       499       500       498       496       499       501
       498       496       499       502       499       502       505       506
       499       502       505       507       499       502       505       508
       500       499       502       503       500       499       502       504
       500       499       502       505       501       499       502       503
       501       499       502       504       501       499       502       505
       502       505       508       509       502       505       508       510
       502       505       508       511       503       502       505       506
       503       502       505       507       503       502       505       508
       504       502       505       506       504       502       505       507
       504       502       505       508       505       508       511       512
       505       508       511       513       505       508       511       514
       506       505       508       509       506       505       508       510
       506       505       508       511       507       505       508       509
       507       505       508       510       507       505       508       511
       508       511       514       515       508       511       514       516
       508       511       514       517       509       508       511       512
       509       508       511       513       509       508       511       514
       510       508       511       512       510       508       511       513
       510       508       511       514       511       514       517       518
       511       514       517       519       511       514       517       520
       512       511       514       515       512       511       514       516
       512       511       514       517       513       511       514       515
       513       511       514       516       513       511       514       517
       514       517       520       521       514       517       520       522
       514       517       520       523       515       514       517       518
       515       514       517       519       515       514       517       520
       516       514       517       518       516       514       517       519
       516       514       517       520       517       520       523       524
       517       520       523       525       517       520       523       526
       518       517       520       521       518       517       520       522
       518       517       520       523       519       517       520       521
       519       517       520       522       519       517       520       523
       520       523       526       527       520       523       526       528
       520       523       526       529       521       520       523       524
       521       520       523       525       521       520       523       526
       522       520       523       524       522       520       523       525
       522       520       523       526       523       526       529       530
       523       526       529       531       523       526       529       532
       524       523       526       527       524       523       526       528
       524       523       526       529       525       523       526       527
       525       523       526       528       525       523       526       529
       527       526       529       530       527       526       529       531
       527       526       529       532       528       526       529       530
       528       526       529       531       528       526       529       532
     16083     16087     16090     16091     16083     16087     16090     16092
     16083     16087     16090     16096     16084     16083     16087     16088
     16084     16083     16087     16089     16084     16083     16087     16090
     16085     16083     16087     16088     16085     16083     16087     16089
     16085     16083     16087     16090     16086     16083     16087     16088
     16086     16083     16087     16089     16086     16083     16087     16090
     16087     16090     16096     16093     16088     16087     16090     16091
     16088     16087     16090     16092     16088     16087     16090     16096
     16089     16087     16090     16091     16089     16087     16090     16092
     16089     16087     16090     16096     16090     16096     16093     16094
     16090     16096     16093     16095     16090     16096     16093     16097
     16091     16090     16096     16093     16092     16090     16096     16093
     16093     16097     16098     16099     16093     16097     16098     16100
     16093     16097     16098     16101     16094     16093     16097     16098
     16095     16093     16097     16098     16096     16093     16097     16098
     16097     16098     16101     16102     16097     16098     16101     16103
     16097     16098     16101     16109     16098     16101     16103     16104
     16098     16101     16109     16110     16098     16101     16109     16111
     16098     16101     16109     16112     16099     16098     16101     16102
     16099     16098     16101     16103     16099     16098     16101     16109
     16100     16098     16101     16102     16100     16098     16101     16103
     16100     16098     16101     16109     16101     16103     16104     16105
     16101     16103     16104     16106     16101     16109     16112     16113
     16102     16101     16103     16104     16102     16101     16109     16110
     16102     16101     16109     16111     16102     16101     16109     16112
     16103     16101     16109     16110     16103     16101     16109     16111
     16103     16101     16109     16112     16103     16104     16106     16107
     16103     16104     16106     16108     16103     16104     16106     16118
     16104     16103     16101     16109     16104     16106     16118     16119
     16104     16106     16118     16120     16104     16106     16118     16121
     16105     16104     16106     16107     16105     16104     16106     16108
     16105     16104     16106     16118     16106     16118     16121     16122
     16106     16118     16121     16123     16106     16118     16121     16124
     16107     16106     16118     16119     16107     16106     16118     16120
     16107     16106     16118     16121     16108     16106     16118     16119
     16108     16106     16118     16120     16108     16106     16118     16121
     16109     16112     16113     16114     16109     16112     16113     16115
     16110     16109     16112     16113     16111     16109     16112     16113
     16112     16113     16115     16116     16112     16113     16115     16117
     16112     16113     16115     16165     16113     16115     16165     16166
     16113     16115     16165     16167     16113     16115     16165     16168
     16114     16113     16115     16116     16114     16113     16115     16117
     16114     16113     16115     16165     16115     16165     16168     16169
     16115     16165     16168     16170     16115     16165     16168     16171
     16116     16115     16165     16166     16116     16115     16165     16167
     16116     16115     16165     16168     16117     16115     16165     16166
     16117     16115     16165     16167     16117     16115     16165     16168
     16118     16121     16124     16125     16118     16121     16124     16126
     16119     16118     16121     16122     16119     16118     16121     16123
     16119     16118     16121     16124     16120     16118     16121     16122
     16120     16118     16121     16123     16120     16118     16121     16124
     16121     16124     16126     16127     16121     16124     16126     16128
     16122     16121     16124     16125     16122     16121     16124     16126
     16123     16121     16124     16125     16123     16121     16124     16126
     16124     16126     16128     16129     16124     16126     16128     16130
     16124     16126     16128     16131     16125     16124     16126     16127
     16125     16124     16126     16128     16126     16128     16131     16132
     16126     16128     16131     16133     16127     16126     16128     16129
     16127     16126     16128     16130     16127     16126     16128     16131
     16128     16131     16133     16134     16128     16131     16133     16135
     16129     16128     16131     16132     16129     16128     16131     16133
     16130     16128     16131     16132     16130     16128     16131     16133
     16131     16133     16135     16136     16131     16133     16135     16137
     16131     16133     16135     16138     16132     16131     16133     16134
     16132     16131     16133     16135     16133     16135     16138     16139
     16133     16135     16138     16140     16134     16133     16135     16136
     16134     16133     16135     16137     16134     16133     16135     16138
     16135     16138     16140     16141     16135     16138     16140     16142
     16136     16135     16138     16139     16136     16135     16138     16140
     16137     16135     16138     16139     16137     16135     16138     16140
     16138     16140     16142     16143     16138     16140     16142     16144
     16138     16140     16142     16145     16139     16138     16140     16141
     16139     16138     16140     16142     16140     16142     16145     16146
     16140     16142     16145     16147     16141     16140     16142     16143
     16141     16140     16142     16144     16141     16140     16142     16145
     16142     16145     16147     16148     16142     16145     16147     16149
     16143     16142     16145     16146     16143     16142     16145     16147
     16144     16142     16145     16146     16144     16142     16145     16147
     16145     16147     16149     16150     16145     16147     16149     16151
     16145     16147     16149     16152     16146     16145     16147     16148
     16146     16145     16147     16149     16147     16149     16152     16153
     16147     16149     16152     16154     16147     16149     16152     16155
     16148     16147     16149     16150     16148     16147     16149     16151
     16148     16147     16149     16152     16149     16152     16155     16156
     16149     16152     16155     16157     16149     16152     16155     16158
     16150     16149     16152     16153     16150     16149     16152     16154
     16150     16149     16152     16155     16151     16149     16152     16153
     16151     16149     16152     16154     16151     16149     16152     16155
     16152     16155     16158     16159     16152     16155     16158     16160
     16152     16155     16158     16161     16153     16152     16155     16156
     16153     16152     16155     16157     16153     16152     16155     16158
     16154     16152     16155     16156     16154     16152     16155     16157
     16154     16152     16155     16158     16155     16158     16161     16162
     16155     16158     16161     16163     16155     16158     16161     16164
     16156     16155     16158     16159     16156     16155     16158     16160
     16156     16155     16158     16161     16157     16155     16158     16159
     16157     16155     16158     16160     16157     16155     16158     16161
     16159     16158     16161     16162     16159     16158     16161     16163
     16159     16158     16161     16164     16160     16158     16161     16162
     16160     16158     16161     16163     16160     16158     16161     16164
     16165     16168     16171     16172     16165     16168     16171     16173
     16165     16168     16171     16174     16166     16165     16168     16169
     16166     16165     16168     16170     16166     16165     16168     16171
     16167     16165     16168     16169     16167     16165     16168     16170
     16167     16165     16168     16171     16168     16171     16174     16175
     16168     16171     16174     16176     16168     16171     16174     16177
     16169     16168     16171     16172     16169     16168     16171     16173
     16169     16168     16171     16174     16170     16168     16171     16172
     16170     16168     16171     16173     16170     16168     16171     16174
     16171     16174     16177     16178     16171     16174     16177     16179
     16171     16174     16177     16180     16172     16171     16174     16175
     16172     16171     16174     16176     16172     16171     16174     16177
     16173     16171     16174     16175     16173     16171     16174     16176
     16173     16171     16174     16177     16174     16177     16180     16181
     16174     16177     16180     16182     16174     16177     16180     16183
     16175     16174     16177     16178     16175     16174     16177     16179
     16175     16174     16177     16180     16176     16174     16177     16178
     16176     16174     16177     16179     16176     16174     16177     16180
     16177     16180     16183     16184     16177     16180     16183     16185
     16177     16180     16183     16186     16178     16177     16180     16181
     16178     16177     16180     16182     16178     16177     16180     16183
     16179     16177     16180     16181     16179     16177     16180     16182
     16179     16177     16180     16183     16180     16183     16186     16187
     16180     16183     16186     16188     16180     16183     16186     16189
     16181     16180     16183     16184     16181     16180     16183     16185
     16181     16180     16183     16186     16182     16180     16183     16184
     16182     16180     16183     16185     16182     16180     16183     16186
     16183     16186     16189     16190     16183     16186     16189     16191
     16183     16186     16189     16192     16184     16183     16186     16187
     16184     16183     16186     16188     16184     16183     16186     16189
     16185     16183     16186     16187     16185     16183     16186     16188
     16185     16183     16186     16189     16186     16189     16192     16193
     16186     16189     16192     16194     16186     16189     16192     16195
     16187     16186     16189     16190     16187     16186     16189     16191
     16187     16186     16189     16192     16188     16186     16189     16190
     16188     16186     16189     16191     16188     16186     16189     16192
     16189     16192     16195     16196     16189     16192     16195     16197
     16189     16192     16195     16198     16190     16189     16192     16193
     16190     16189     16192     16194     16190     16189     16192     16195
     16191     16189     16192     16193     16191     16189     16192     16194
     16191     16189     16192     16195     16192     16195     16198     16199
     16192     16195     16198     16200     16192     16195     16198     16201
     16193     16192     16195     16196     16193     16192     16195     16197
     16193     16192     16195     16198     16194     16192     16195     16196
     16194     16192     16195     16197     16194     16192     16195     16198
     16195     16198     16201     16202     16195     16198     16201     16203
     16195     16198     16201     16204     16196     16195     16198     16199
     16196     16195     16198     16200     16196     16195     16198     16201
     16197     16195     16198     16199     16197     16195     16198     16200
     16197     16195     16198     16201     16198     16201     16204     16205
     16198     16201     16204     16206     16198     16201     16204     16207
     16199     16198     16201     16202     16199     16198     16201     16203
     16199     16198     16201     16204     16200     16198     16201     16202
     16200     16198     16201     16203     16200     16198     16201     16204
     16201     16204     16207     16208     16201     16204     16207     16209
     16201     16204     16207     16210     16202     16201     16204     16205
     16202     16201     16204     16206     16202     16201     16204     16207
     16203     16201     16204     16205     16203     16201     16204     16206
     16203     16201     16204     16207     16204     16207     16210     16211
     16204     16207     16210     16212     16204     16207     16210     16213
     16205     16204     16207     16208     16205     16204     16207     16209
     16205     16204     16207     16210     16206     16204     16207     16208
     16206     16204     16207     16209     16206     16204     16207     16210
     16208     16207     16210     16211     16208     16207     16210     16212
     16208     16207     16210     16213     16209     16207     16210     16211
     16209     16207     16210     16212     16209     16207     16210     16213
     16214     16218     16221     16222     16214     16218     16221     16223
     16214     16218     16221     16227     16215     16214     16218     16219
     16215     16214     16218     16220     16215     16214     16218     16221
     16216     16214     16218     16219     16216     16214     16218     16220
     16216     16214     16218     16221     16217     16214     16218     16219
     16217     16214     16218     16220     16217     16214     16218     16221
     16218     16221     16227     16224     16219     16218     16221     16222
     16219     16218     16221     16223     16219     16218     16221     16227
     16220     16218     16221     16222     16220     16218     16221     16223
     16220     16218     16221     16227     16221     16227     16224     16225
     16221     16227     16224     16226     16221     16227     16224     16228
     16222     16221     16227     16224     16223     16221     16227     16224
     16224     16228     16229     16230     16224     16228     16229     16231
     16224     16228     16229     16232     16225     16224     16228     16229
     16226     16224     16228     16229     16227     16224     16228     16229
     16228     16229     16232     16233     16228     16229     16232     16234
     16228     16229     16232     16240     16229     16232     16234     16235
     16229     16232     16240     16241     16229     16232     16240     16242
     16229     16232     16240     16243     16230     16229     16232     16233
     16230     16229     16232     16234     16230     16229     16232     16240
     16231     16229     16232     16233     16231     16229     16232     16234
     16231     16229     16232     16240     16232     16234     16235     16236
     16232     16234     16235     16237     16232     16240     16243     16244
     16233     16232     16234     16235     16233     16232     16240     16241
     16233     16232     16240     16242     16233     16232     16240     16243
     16234     16232     16240     16241     16234     16232     16240     16242
     16234     16232     16240     16243     16234     16235     16237     16238
     16234     16235     16237     16239     16234     16235     16237     16249
     16235     16234     16232     16240     16235     16237     16249     16250
     16235     16237     16249     16251     16235     16237     16249     16252
     16236     16235     16237     16238     16236     16235     16237     16239
     16236     16235     16237     16249     16237     16249     16252     16253
     16237     16249     16252     16254     16237     16249     16252     16255
     16238     16237     16249     16250     16238     16237     16249     16251
     16238     16237     16249     16252     16239     16237     16249     16250
     16239     16237     16249     16251     16239     16237     16249     16252
     16240     16243     16244     16245     16240     16243     16244     16246
     16241     16240     16243     16244     16242     16240     16243     16244
     16243     16244     16246     16247     16243     16244     16246     16248
     16243     16244     16246     16296     16244     16246     16296     16297
     16244     16246     16296     16298     16244     16246     16296     16299
     16245     16244     16246     16247     16245     16244     16246     16248
     16245     16244     16246     16296     16246     16296     16299     16300
     16246     16296     16299     16301     16246     16296     16299     16302
     16247     16246     16296     16297     16247     16246     16296     16298
     16247     16246     16296     16299     16248     16246     16296     16297
     16248     16246     16296     16298     16248     16246     16296     16299
     16249     16252     16255     16256     16249     16252     16255     16257
     16250     16249     16252     16253     16250     16249     16252     16254
     16250     16249     16252     16255     16251     16249     16252     16253
     16251     16249     16252     16254     16251     16249     16252     16255
     16252     16255     16257     16258     16252     16255     16257     16259
     16253     16252     16255     16256     16253     16252     16255     16257
     16254     16252     16255     16256     16254     16252     16255     16257
     16255     16257     16259     16260     16255     16257     16259     16261
     16255     16257     16259     16262     16256     16255     16257     16258
     16256     16255     16257     16259     16257     16259     16262     16263
     16257     16259     16262     16264     16258     16257     16259     16260
     16258     16257     16259     16261     16258     16257     16259     16262
     16259     16262     16264     16265     16259     16262     16264     16266
     16260     16259     16262     16263     16260     16259     16262     16264
     16261     16259     16262     16263     16261     16259     16262     16264
     16262     16264     16266     16267     16262     16264     16266     16268
     16262     16264     16266     16269     16263     16262     16264     16265
     16263     16262     16264     16266     16264     16266     16269     16270
     16264     16266     16269     16271     16265     16264     16266     16267
     16265     16264     16266     16268     16265     16264     16266     16269
     16266     16269     16271     16272     16266     16269     16271     16273
     16267     16266     16269     16270     16267     16266     16269     16271
     16268     16266     16269     16270     16268     16266     16269     16271
     16269     16271     16273     16274     16269     16271     16273     16275
     16269     16271     16273     16276     16270     16269     16271     16272
     16270     16269     16271     16273     16271     16273     16276     16277
     16271     16273     16276     16278     16272     16271     16273     16274
     16272     16271     16273     16275     16272     16271     16273     16276
     16273     16276     16278     16279     16273     16276     16278     16280
     16274     16273     16276     16277     16274     16273     16276     16278
     16275     16273     16276     16277     16275     16273     16276     16278
     16276     16278     16280     16281     16276     16278     16280     16282
     16276     16278     16280     16283     16277     16276     16278     16279
     16277     16276     16278     16280     16278     16280     16283     16284
     16278     16280     16283     16285     16278     16280     16283     16286
     16279     16278     16280     16281     16279     16278     16280     16282
     16279     16278     16280     16283     16280     16283     16286     16287
     16280     16283     16286     16288     16280     16283     16286     16289
     16281     16280     16283     16284     16281     16280     16283     16285
     16281     16280     16283     16286     16282     16280     16283     16284
     16282     16280     16283     16285     16282     16280     16283     16286
     16283     16286     16289     16290     16283     16286     16289     16291
     16283     16286     16289     16292     16284     16283     16286     16287
     16284     16283     16286     16288     16284     16283     16286     16289
     16285     16283     16286     16287     16285     16283     16286     16288
     16285     16283     16286     16289     16286     16289     16292     16293
     16286     16289     16292     16294     16286     16289     16292     16295
     16287     16286     16289     16290     16287     16286     16289     16291
     16287     16286     16289     16292     16288     16286     16289     16290
     16288     16286     16289     16291     16288     16286     16289     16292
     16290     16289     16292     16293     16290     16289     16292     16294
     16290     16289     16292     16295     16291     16289     16292     16293
     16291     16289     16292     16294     16291     16289     16292     16295
     16296     16299     16302     16303     16296     16299     16302     16304
     16296     16299     16302     16305     16297     16296     16299     16300
     16297     16296     16299     16301     16297     16296     16299     16302
     16298     16296     16299     16300     16298     16296     16299     16301
     16298     16296     16299     16302     16299     16302     16305     16306
     16299     16302     16305     16307     16299     16302     16305     16308
     16300     16299     16302     16303     16300     16299     16302     16304
     16300     16299     16302     16305     16301     16299     16302     16303
     16301     16299     16302     16304     16301     16299     16302     16305
     16302     16305     16308     16309     16302     16305     16308     16310
     16302     16305     16308     16311     16303     16302     16305     16306
     16303     16302     16305     16307     16303     16302     16305     16308
     16304     16302     16305     16306     16304     16302     16305     16307
     16304     16302     16305     16308     16305     16308     16311     16312
     16305     16308     16311     16313     16305     16308     16311     16314
     16306     16305     16308     16309     16306     16305     16308     16310
     16306     16305     16308     16311     16307     16305     16308     16309
     16307     16305     16308     16310     16307     16305     16308     16311
     16308     16311     16314     16315     16308     16311     16314     16316
     16308     16311     16314     16317     16309     16308     16311     16312
     16309     16308     16311     16313     16309     16308     16311     16314
     16310     16308     16311     16312     16310     16308     16311     16313
     16310     16308     16311     16314     16311     16314     16317     16318
     16311     16314     16317     16319     16311     16314     16317     16320
     16312     16311     16314     16315     16312     16311     16314     16316
     16312     16311     16314     16317     16313     16311     16314     16315
     16313     16311     16314     16316     16313     16311     16314     16317
     16314     16317     16320     16321     16314     16317     16320     16322
     16314     16317     16320     16323     16315     16314     16317     16318
     16315     16314     16317     16319     16315     16314     16317     16320
     16316     16314     16317     16318     16316     16314     16317     16319
     16316     16314     16317     16320     16317     16320     16323     16324
     16317     16320     16323     16325     16317     16320     16323     16326
     16318     16317     16320     16321     16318     16317     16320     16322
     16318     16317     16320     16323     16319     16317     16320     16321
     16319     16317     16320     16322     16319     16317     16320     16323
     16320     16323     16326     16327     16320     16323     16326     16328
     16320     16323     16326     16329     16321     16320     16323     16324
     16321     16320     16323     16325     16321     16320     16323     16326
     16322     16320     16323     16324     16322     16320     16323     16325
     16322     16320     16323     16326     16323     16326     16329     16330
     16323     16326     16329     16331     16323     16326     16329     16332
     16324     16323     16326     16327     16324     16323     16326     16328
     16324     16323     16326     16329     16325     16323     16326     16327
     16325     16323     16326     16328     16325     16323     16326     16329
     16326     16329     16332     16333     16326     16329     16332     16334
     16326     16329     16332     16335     16327     16326     16329     16330
     16327     16326     16329     16331     16327     16326     16329     16332
     16328     16326     16329     16330     16328     16326     16329     16331
     16328     16326     16329     16332     16329     16332     16335     16336
     16329     16332     16335     16337     16329     16332     16335     16338
     16330     16329     16332     16333     16330     16329     16332     16334
     16330     16329     16332     16335     16331     16329     16332     16333
     16331     16329     16332     16334     16331     16329     16332     16335
     16332     16335     16338     16339     16332     16335     16338     16340
     16332     16335     16338     16341     16333     16332     16335     16336
     16333     16332     16335     16337     16333     16332     16335     16338
     16334     16332     16335     16336     16334     16332     16335     16337
     16334     16332     16335     16338     16335     16338     16341     16342
     16335     16338     16341     16343     16335     16338     16341     16344
     16336     16335     16338     16339     16336     16335     16338     16340
     16336     16335     16338     16341     16337     16335     16338     16339
     16337     16335     16338     16340     16337     16335     16338     16341
     16339     16338     16341     16342     16339     16338     16341     16343
     16339     16338     16341     16344     16340     16338     16341     16342
     16340     16338     16341     16343     16340     16338     16341     16344
     16345     16349     16352     16353     16345     16349     16352     16354
     16345     16349     16352     16358     16346     16345     16349     16350
     16346     16345     16349     16351     16346     16345     16349     16352
     16347     16345     16349     16350     16347     16345     16349     16351
     16347     16345     16349     16352     16348     16345     16349     16350
     16348     16345     16349     16351     16348     16345     16349     16352
     16349     16352     16358     16355     16350     16349     16352     16353
     16350     16349     16352     16354     16350     16349     16352     16358
     16351     16349     16352     16353     16351     16349     16352     16354
     16351     16349     16352     16358     16352     16358     16355     16356
     16352     16358     16355     16357     16352     16358     16355     16359
     16353     16352     16358     16355     16354     16352     16358     16355
     16355     16359     16360     16361     16355     16359     16360     16362
     16355     16359     16360     16363     16356     16355     16359     16360
     16357     16355     16359     16360     16358     16355     16359     16360
     16359     16360     16363     16364     16359     16360     16363     16365
     16359     16360     16363     16371     16360     16363     16365     16366
     16360     16363     16371     16372     16360     16363     16371     16373
     16360     16363     16371     16374     16361     16360     16363     16364
     16361     16360     16363     16365     16361     16360     16363     16371
     16362     16360     16363     16364     16362     16360     16363     16365
     16362     16360     16363     16371     16363     16365     16366     16367
     16363     16365     16366     16368     16363     16371     16374     16375
     16364     16363     16365     16366     16364     16363     16371     16372
     16364     16363     16371     16373     16364     16363     16371     16374
     16365     16363     16371     16372     16365     16363     16371     16373
     16365     16363     16371     16374     16365     16366     16368     16369
     16365     16366     16368     16370     16365     16366     16368     16380
     16366     16365     16363     16371     16366     16368     16380     16381
     16366     16368     16380     16382     16366     16368     16380     16383
     16367     16366     16368     16369     16367     16366     16368     16370
     16367     16366     16368     16380     16368     16380     16383     16384
     16368     16380     16383     16385     16368     16380     16383     16386
     16369     16368     16380     16381     16369     16368     16380     16382
     16369     16368     16380     16383     16370     16368     16380     16381
     16370     16368     16380     16382     16370     16368     16380     16383
     16371     16374     16375     16376     16371     16374     16375     16377
     16372     16371     16374     16375     16373     16371     16374     16375
     16374     16375     16377     16378     16374     16375     16377     16379
     16374     16375     16377     16427     16375     16377     16427     16428
     16375     16377     16427     16429     16375     16377     16427     16430
     16376     16375     16377     16378     16376     16375     16377     16379
     16376     16375     16377     16427     16377     16427     16430     16431
     16377     16427     16430     16432     16377     16427     16430     16433
     16378     16377     16427     16428     16378     16377     16427     16429
     16378     16377     16427     16430     16379     16377     16427     16428
     16379     16377     16427     16429     16379     16377     16427     16430
     16380     16383     16386     16387     16380     16383     16386     16388
     16381     16380     16383     16384     16381     16380     16383     16385
     16381     16380     16383     16386     16382     16380     16383     16384
     16382     16380     16383     16385     16382     16380     16383     16386
     16383     16386     16388     16389     16383     16386     16388     16390
     16384     16383     16386     16387     16384     16383     16386     16388
     16385     16383     16386     16387     16385     16383     16386     16388
     16386     16388     16390     16391     16386     16388     16390     16392
     16386     16388     16390     16393     16387     16386     16388     16389
     16387     16386     16388     16390     16388     16390     16393     16394
     16388     16390     16393     16395     16389     16388     16390     16391
     16389     16388     16390     16392     16389     16388     16390     16393
     16390     16393     16395     16396     16390     16393     16395     16397
     16391     16390     16393     16394     16391     16390     16393     16395
     16392     16390     16393     16394     16392     16390     16393     16395
     16393     16395     16397     16398     16393     16395     16397     16399
     16393     16395     16397     16400     16394     16393     16395     16396
     16394     16393     16395     16397     16395     16397     16400     16401
     16395     16397     16400     16402     16396     16395     16397     16398
     16396     16395     16397     16399     16396     16395     16397     16400
     16397     16400     16402     16403     16397     16400     16402     16404
     16398     16397     16400     16401     16398     16397     16400     16402
     16399     16397     16400     16401     16399     16397     16400     16402
     16400     16402     16404     16405     16400     16402     16404     16406
     16400     16402     16404     16407     16401     16400     16402     16403
     16401     16400     16402     16404     16402     16404     16407     16408
     16402     16404     16407     16409     16403     16402     16404     16405
     16403     16402     16404     16406     16403     16402     16404     16407
     16404     16407     16409     16410     16404     16407     16409     16411
     16405     16404     16407     16408     16405     16404     16407     16409
     16406     16404     16407     16408     16406     16404     16407     16409
     16407     16409     16411     16412     16407     16409     16411     16413
     16407     16409     16411     16414     16408     16407     16409     16410
     16408     16407     16409     16411     16409     16411     16414     16415
     16409     16411     16414     16416     16409     16411     16414     16417
     16410     16409     16411     16412     16410     16409     16411     16413
     16410     16409     16411     16414     16411     16414     16417     16418
     16411     16414     16417     16419     16411     16414     16417     16420
     16412     16411     16414     16415     16412     16411     16414     16416
     16412     16411     16414     16417     16413     16411     16414     16415
     16413     16411     16414     16416     16413     16411     16414     16417
     16414     16417     16420     16421     16414     16417     16420     16422
     16414     16417     16420     16423     16415     16414     16417     16418
     16415     16414     16417     16419     16415     16414     16417     16420
     16416     16414     16417     16418     16416     16414     16417     16419
     16416     16414     16417     16420     16417     16420     16423     16424
     16417     16420     16423     16425     16417     16420     16423     16426
     16418     16417     16420     16421     16418     16417     16420     16422
     16418     16417     16420     16423     16419     16417     16420     16421
     16419     16417     16420     16422     16419     16417     16420     16423
     16421     16420     16423     16424     16421     16420     16423     16425
     16421     16420     16423     16426     16422     16420     16423     16424
     16422     16420     16423     16425     16422     16420     16423     16426
     16427     16430     16433     16434     16427     16430     16433     16435
     16427     16430     16433     16436     16428     16427     16430     16431
     16428     16427     16430     16432     16428     16427     16430     16433
     16429     16427     16430     16431     16429     16427     16430     16432
     16429     16427     16430     16433     16430     16433     16436     16437
     16430     16433     16436     16438     16430     16433     16436     16439
     16431     16430     16433     16434     16431     16430     16433     16435
     16431     16430     16433     16436     16432     16430     16433     16434
     16432     16430     16433     16435     16432     16430     16433     16436
     16433     16436     16439     16440     16433     16436     16439     16441
     16433     16436     16439     16442     16434     16433     16436     16437
     16434     16433     16436     16438     16434     16433     16436     16439
     16435     16433     16436     16437     16435     16433     16436     16438
     16435     16433     16436     16439     16436     16439     16442     16443
     16436     16439     16442     16444     16436     16439     16442     16445
     16437     16436     16439     16440     16437     16436     16439     16441
     16437     16436     16439     16442     16438     16436     16439     16440
     16438     16436     16439     16441     16438     16436     16439     16442
     16439     16442     16445     16446     16439     16442     16445     16447
     16439     16442     16445     16448     16440     16439     16442     16443
     16440     16439     16442     16444     16440     16439     16442     16445
     16441     16439     16442     16443     16441     16439     16442     16444
     16441     16439     16442     16445     16442     16445     16448     16449
     16442     16445     16448     16450     16442     16445     16448     16451
     16443     16442     16445     16446     16443     16442     16445     16447
     16443     16442     16445     16448     16444     16442     16445     16446
     16444     16442     16445     16447     16444     16442     16445     16448
     16445     16448     16451     16452     16445     16448     16451     16453
     16445     16448     16451     16454     16446     16445     16448     16449
     16446     16445     16448     16450     16446     16445     16448     16451
     16447     16445     16448     16449     16447     16445     16448     16450
     16447     16445     16448     16451     16448     16451     16454     16455
     16448     16451     16454     16456     16448     16451     16454     16457
     16449     16448     16451     16452     16449     16448     16451     16453
     16449     16448     16451     16454     16450     16448     16451     16452
     16450     16448     16451     16453     16450     16448     16451     16454
     16451     16454     16457     16458     16451     16454     16457     16459
     16451     16454     16457     16460     16452     16451     16454     16455
     16452     16451     16454     16456     16452     16451     16454     16457
     16453     16451     16454     16455     16453     16451     16454     16456
     16453     16451     16454     16457     16454     16457     16460     16461
     16454     16457     16460     16462     16454     16457     16460     16463
     16455     16454     16457     16458     16455     16454     16457     16459
     16455     16454     16457     16460     16456     16454     16457     16458
     16456     16454     16457     16459     16456     16454     16457     16460
     16457     16460     16463     16464     16457     16460     16463     16465
     16457     16460     16463     16466     16458     16457     16460     16461
     16458     16457     16460     16462     16458     16457     16460     16463
     16459     16457     16460     16461     16459     16457     16460     16462
     16459     16457     16460     16463     16460     16463     16466     16467
     16460     16463     16466     16468     16460     16463     16466     16469
     16461     16460     16463     16464     16461     16460     16463     16465
     16461     16460     16463     16466     16462     16460     16463     16464
     16462     16460     16463     16465     16462     16460     16463     16466
     16463     16466     16469     16470     16463     16466     16469     16471
     16463     16466     16469     16472     16464     16463     16466     16467
     16464     16463     16466     16468     16464     16463     16466     16469
     16465     16463     16466     16467     16465     16463     16466     16468
     16465     16463     16466     16469     16466     16469     16472     16473
     16466     16469     16472     16474     16466     16469     16472     16475
     16467     16466     16469     16470     16467     16466     16469     16471
     16467     16466     16469     16472     16468     16466     16469     16470
     16468     16466     16469     16471     16468     16466     16469     16472
     16470     16469     16472     16473     16470     16469     16472     16474
     16470     16469     16472     16475     16471     16469     16472     16473
     16471     16469     16472     16474     16471     16469     16472     16475
      3401      3405      3408      3409      3401      3405      3408      3439
      3401      3447      3444      3439      3401      3447      3444      3445
      3401      3447      3444      3446      3402      3401      3403      3404
      3402      3401      3405      3406      3402      3401      3405      3407
      3402      3401      3405      3408      3402      3401      3447      3444
      3402      3401      3447      3448      3402      3401      3447      3449
      3403      3401      3405      3406      3403      3401      3405      3407
      3403      3401      3405      3408      3403      3401      3447      3444
      3403      3401      3447      3448      3403      3401      3447      3449
      3404      3403      3401      3405      3404      3403      3401      3447
      3405      3401      3447      3444      3405      3401      3447      3448
      3405      3401      3447      3449      3405      3408      3409      3410
      3405      3408      3409      3411      3405      3408      3439      3437
      3405      3408      3439      3440      3405      3408      3439      3444
      3406      3405      3401      3447      3406      3405      3408      3409
      3406      3405      3408      3439      3407      3405      3401      3447
      3407      3405      3408      3409      3407      3405      3408      3439
      3408      3405      3401      3447      3408      3409      3411      3412
      3408      3409      3411      3413      3408      3409      3411      3414
      3408      3439      3437      3414      3408      3439      3437      3434
      3408      3439      3437      3438      3408      3439      3440      3441
      3408      3439      3440      3442      3408      3439      3440      3443
      3408      3439      3444      3445      3408      3439      3444      3446
      3408      3439      3444      3447      3409      3408      3439      3437
      3409      3408      3439      3440      3409      3408      3439      3444
      3409      3411      3414      3415      3409      3411      3414      3416
      3409      3411      3414      3437      3410      3409      3408      3439
      3410      3409      3411      3412      3410      3409      3411      3413
      3410      3409      3411      3414      3411      3409      3408      3439
      3411      3414      3416      3417      3411      3414      3416      3418
      3411      3414      3416      3426      3411      3414      3437      3434
      3411      3414      3437      3438      3411      3414      3437      3439
      3412      3411      3414      3415      3412      3411      3414      3416
      3412      3411      3414      3437      3413      3411      3414      3415
      3413      3411      3414      3416      3413      3411      3414      3437
      3414      3416      3418      3419      3414      3416      3418      3420
      3414      3416      3418      3421      3414      3416      3426      3424
      3414      3416      3426      3427      3414      3416      3426      3431
      3414      3437      3434      3431      3414      3437      3434      3435
      3414      3437      3434      3436      3414      3437      3439      3440
      3414      3437      3439      3444      3415      3414      3416      3417
      3415      3414      3416      3418      3415      3414      3416      3426
      3415      3414      3437      3434      3415      3414      3437      3438
      3415      3414      3437      3439      3416      3414      3437      3434
      3416      3414      3437      3438      3416      3414      3437      3439
      3416      3418      3421      3422      3416      3418      3421      3423
      3416      3418      3421      3424      3416      3426      3424      3421
      3416      3426      3424      3425      3416      3426      3424      3450
      3416      3426      3427      3428      3416      3426      3427      3429
      3416      3426      3427      3430      3416      3426      3431      3432
      3416      3426      3431      3433      3416      3426      3431      3434
      3417      3416      3414      3437      3417      3416      3418      3419
      3417      3416      3418      3420      3417      3416      3418      3421
      3417      3416      3426      3424      3417      3416      3426      3427
      3417      3416      3426      3431      3418      3416      3414      3437
      3418      3416      3426      3424      3418      3416      3426      3427
      3418      3416      3426      3431      3418      3421      3424      3425
      3418      3421      3424      3426      3418      3421      3424      3450
      3419      3418      3416      3426      3419      3418      3421      3422
      3419      3418      3421      3423      3419      3418      3421      3424
      3420      3418      3416      3426      3420      3418      3421      3422
      3420      3418      3421      3423      3420      3418      3421      3424
      3421      3418      3416      3426      3421      3424      3426      3427
      3421      3424      3426      3431      3421      3424      3450      3451
      3421      3424      3450      3452      3421      3424      3450      3456
      3422      3421      3424      3425      3422      3421      3424      3426
      3422      3421      3424      3450      3423      3421      3424      3425
      3423      3421      3424      3426      3423      3421      3424      3450
      3424      3426      3427      3428      3424      3426      3427      3429
      3424      3426      3427      3430      3424      3426      3431      3432
      3424      3426      3431      3433      3424      3426      3431      3434
      3424      3450      3452      3453      3424      3450      3452      3454
      3424      3450      3452      3455      3424      3450      3456      3457
      3424      3450      3456      3458      3424      3450      3456      3459
      3425      3424      3426      3427      3425      3424      3426      3431
      3425      3424      3450      3451      3425      3424      3450      3452
      3425      3424      3450      3456      3426      3416      3414      3437
      3426      3424      3450      3451      3426      3424      3450      3452
      3426      3424      3450      3456      3426      3431      3434      3435
      3426      3431      3434      3436      3426      3431      3434      3437
      3427      3426      3424      3450      3427      3426      3431      3432
      3427      3426      3431      3433      3427      3426      3431      3434
      3428      3427      3426      3431      3429      3427      3426      3431
      3430      3427      3426      3431      3431      3426      3424      3450
      3431      3434      3437      3438      3431      3434      3437      3439
      3432      3431      3434      3435      3432      3431      3434      3436
      3432      3431      3434      3437      3433      3431      3434      3435
      3433      3431      3434      3436      3433      3431      3434      3437
      3434      3437      3439      3440      3434      3437      3439      3444
      3435      3434      3437      3438      3435      3434      3437      3439
      3436      3434      3437      3438      3436      3434      3437      3439
      3437      3439      3440      3441      3437      3439      3440      3442
      3437      3439      3440      3443      3437      3439      3444      3445
      3437      3439      3444      3446      3437      3439      3444      3447
      3438      3437      3439      3440      3438      3437      3439      3444
      3439      3444      3447      3448      3439      3444      3447      3449
      3440      3439      3444      3445      3440      3439      3444      3446
      3440      3439      3444      3447      3441      3440      3439      3444
      3442      3440      3439      3444      3443      3440      3439      3444
      3445      3444      3447      3448      3445      3444      3447      3449
      3446      3444      3447      3448      3446      3444      3447      3449
      3450      3456      3459      3460      3450      3456      3459      3461
      3450      3456      3459      3462      3451      3450      3452      3453
      3451      3450      3452      3454      3451      3450      3452      3455
      3451      3450      3456      3457      3451      3450      3456      3458
      3451      3450      3456      3459      3452      3450      3456      3457
      3452      3450      3456      3458      3452      3450      3456      3459
      3453      3452      3450      3456      3454      3452      3450      3456
      3455      3452      3450      3456      3456      3459      3462      3463
      3456      3459      3462      3464      3456      3459      3462      3465
      3457      3456      3459      3460      3457      3456      3459      3461
      3457      3456      3459      3462      3458      3456      3459      3460
      3458      3456      3459      3461      3458      3456      3459      3462
      3459      3462      3465      3466      3459      3462      3465      3467
      3459      3462      3465      3471      3460      3459      3462      3463
      3460      3459      3462      3464      3460      3459      3462      3465
      3461      3459      3462      3463      3461      3459      3462      3464
      3461      3459      3462      3465      3462      3465      3467      3468
      3462      3465      3467      3469      3462      3465      3467      3470
      3462      3465      3471      3472      3462      3465      3471      3473
      3462      3465      3471      3474      3463      3462      3465      3466
      3463      3462      3465      3467      3463      3462      3465      3471
      3464      3462      3465      3466      3464      3462      3465      3467
      3464      3462      3465      3471      3466      3465      3467      3468
      3466      3465      3467      3469      3466      3465      3467      3470
      3466      3465      3471      3472      3466      3465      3471      3473
      3466      3465      3471      3474      3467      3465      3471      3472
      3467      3465      3471      3473      3467      3465      3471      3474
      3468      3467      3465      3471      3469      3467      3465      3471
      3470      3467      3465      3471     16476     16480     16483     16484
     16476     16480     16483     16485     16476     16480     16483     16489
     16477     16476     16480     16481     16477     16476     16480     16482
     16477     16476     16480     16483     16478     16476     16480     16481
     16478     16476     16480     16482     16478     16476     16480     16483
     16479     16476     16480     16481     16479     16476     16480     16482
     16479     16476     16480     16483     16480     16483     16489     16486
     16481     16480     16483     16484     16481     16480     16483     16485
     16481     16480     16483     16489     16482     16480     16483     16484
     16482     16480     16483     16485     16482     16480     16483     16489
     16483     16489     16486     16487     16483     16489     16486     16488
     16483     16489     16486     16490     16484     16483     16489     16486
     16485     16483     16489     16486     16486     16490     16491     16492
     16486     16490     16491     16493     16486     16490     16491     16494
     16487     16486     16490     16491     16488     16486     16490     16491
     16489     16486     16490     16491     16490     16491     16494     16495
     16490     16491     16494     16496     16490     16491     16494     16502
     16491     16494     16496     16497     16491     16494     16502     16503
     16491     16494     16502     16504     16491     16494     16502     16505
     16492     16491     16494     16495     16492     16491     16494     16496
     16492     16491     16494     16502     16493     16491     16494     16495
     16493     16491     16494     16496     16493     16491     16494     16502
     16494     16496     16497     16498     16494     16496     16497     16499
     16494     16502     16505     16506     16495     16494     16496     16497
     16495     16494     16502     16503     16495     16494     16502     16504
     16495     16494     16502     16505     16496     16494     16502     16503
     16496     16494     16502     16504     16496     16494     16502     16505
     16496     16497     16499     16500     16496     16497     16499     16501
     16496     16497     16499     16511     16497     16496     16494     16502
     16497     16499     16511     16512     16497     16499     16511     16513
     16497     16499     16511     16514     16498     16497     16499     16500
     16498     16497     16499     16501     16498     16497     16499     16511
     16499     16511     16514     16515     16499     16511     16514     16516
     16499     16511     16514     16517     16500     16499     16511     16512
     16500     16499     16511     16513     16500     16499     16511     16514
     16501     16499     16511     16512     16501     16499     16511     16513
     16501     16499     16511     16514     16502     16505     16506     16507
     16502     16505     16506     16508     16503     16502     16505     16506
     16504     16502     16505     16506     16505     16506     16508     16509
     16505     16506     16508     16510     16505     16506     16508     16558
     16506     16508     16558     16559     16506     16508     16558     16560
     16506     16508     16558     16561     16507     16506     16508     16509
     16507     16506     16508     16510     16507     16506     16508     16558
     16508     16558     16561     16562     16508     16558     16561     16563
     16508     16558     16561     16564     16509     16508     16558     16559
     16509     16508     16558     16560     16509     16508     16558     16561
     16510     16508     16558     16559     16510     16508     16558     16560
     16510     16508     16558     16561     16511     16514     16517     16518
     16511     16514     16517     16519     16512     16511     16514     16515
     16512     16511     16514     16516     16512     16511     16514     16517
     16513     16511     16514     16515     16513     16511     16514     16516
     16513     16511     16514     16517     16514     16517     16519     16520
     16514     16517     16519     16521     16515     16514     16517     16518
     16515     16514     16517     16519     16516     16514     16517     16518
     16516     16514     16517     16519     16517     16519     16521     16522
     16517     16519     16521     16523     16517     16519     16521     16524
     16518     16517     16519     16520     16518     16517     16519     16521
     16519     16521     16524     16525     16519     16521     16524     16526
     16520     16519     16521     16522     16520     16519     16521     16523
     16520     16519     16521     16524     16521     16524     16526     16527
     16521     16524     16526     16528     16522     16521     16524     16525
     16522     16521     16524     16526     16523     16521     16524     16525
     16523     16521     16524     16526     16524     16526     16528     16529
     16524     16526     16528     16530     16524     16526     16528     16531
     16525     16524     16526     16527     16525     16524     16526     16528
     16526     16528     16531     16532     16526     16528     16531     16533
     16527     16526     16528     16529     16527     16526     16528     16530
     16527     16526     16528     16531     16528     16531     16533     16534
     16528     16531     16533     16535     16529     16528     16531     16532
     16529     16528     16531     16533     16530     16528     16531     16532
     16530     16528     16531     16533     16531     16533     16535     16536
     16531     16533     16535     16537     16531     16533     16535     16538
     16532     16531     16533     16534     16532     16531     16533     16535
     16533     16535     16538     16539     16533     16535     16538     16540
     16534     16533     16535     16536     16534     16533     16535     16537
     16534     16533     16535     16538     16535     16538     16540     16541
     16535     16538     16540     16542     16536     16535     16538     16539
     16536     16535     16538     16540     16537     16535     16538     16539
     16537     16535     16538     16540     16538     16540     16542     16543
     16538     16540     16542     16544     16538     16540     16542     16545
     16539     16538     16540     16541     16539     16538     16540     16542
     16540     16542     16545     16546     16540     16542     16545     16547
     16540     16542     16545     16548     16541     16540     16542     16543
     16541     16540     16542     16544     16541     16540     16542     16545
     16542     16545     16548     16549     16542     16545     16548     16550
     16542     16545     16548     16551     16543     16542     16545     16546
     16543     16542     16545     16547     16543     16542     16545     16548
     16544     16542     16545     16546     16544     16542     16545     16547
     16544     16542     16545     16548     16545     16548     16551     16552
     16545     16548     16551     16553     16545     16548     16551     16554
     16546     16545     16548     16549     16546     16545     16548     16550
     16546     16545     16548     16551     16547     16545     16548     16549
     16547     16545     16548     16550     16547     16545     16548     16551
     16548     16551     16554     16555     16548     16551     16554     16556
     16548     16551     16554     16557     16549     16548     16551     16552
     16549     16548     16551     16553     16549     16548     16551     16554
     16550     16548     16551     16552     16550     16548     16551     16553
     16550     16548     16551     16554     16552     16551     16554     16555
     16552     16551     16554     16556     16552     16551     16554     16557
     16553     16551     16554     16555     16553     16551     16554     16556
     16553     16551     16554     16557     16558     16561     16564     16565
     16558     16561     16564     16566     16558     16561     16564     16567
     16559     16558     16561     16562     16559     16558     16561     16563
     16559     16558     16561     16564     16560     16558     16561     16562
     16560     16558     16561     16563     16560     16558     16561     16564
     16561     16564     16567     16568     16561     16564     16567     16569
     16561     16564     16567     16570     16562     16561     16564     16565
     16562     16561     16564     16566     16562     16561     16564     16567
     16563     16561     16564     16565     16563     16561     16564     16566
     16563     16561     16564     16567     16564     16567     16570     16571
     16564     16567     16570     16572     16564     16567     16570     16573
     16565     16564     16567     16568     16565     16564     16567     16569
     16565     16564     16567     16570     16566     16564     16567     16568
     16566     16564     16567     16569     16566     16564     16567     16570
     16567     16570     16573     16574     16567     16570     16573     16575
     16567     16570     16573     16576     16568     16567     16570     16571
     16568     16567     16570     16572     16568     16567     16570     16573
     16569     16567     16570     16571     16569     16567     16570     16572
     16569     16567     16570     16573     16570     16573     16576     16577
     16570     16573     16576     16578     16570     16573     16576     16579
     16571     16570     16573     16574     16571     16570     16573     16575
     16571     16570     16573     16576     16572     16570     16573     16574
     16572     16570     16573     16575     16572     16570     16573     16576
     16573     16576     16579     16580     16573     16576     16579     16581
     16573     16576     16579     16582     16574     16573     16576     16577
     16574     16573     16576     16578     16574     16573     16576     16579
     16575     16573     16576     16577     16575     16573     16576     16578
     16575     16573     16576     16579     16576     16579     16582     16583
     16576     16579     16582     16584     16576     16579     16582     16585
     16577     16576     16579     16580     16577     16576     16579     16581
     16577     16576     16579     16582     16578     16576     16579     16580
     16578     16576     16579     16581     16578     16576     16579     16582
     16579     16582     16585     16586     16579     16582     16585     16587
     16579     16582     16585     16588     16580     16579     16582     16583
     16580     16579     16582     16584     16580     16579     16582     16585
     16581     16579     16582     16583     16581     16579     16582     16584
     16581     16579     16582     16585     16582     16585     16588     16589
     16582     16585     16588     16590     16582     16585     16588     16591
     16583     16582     16585     16586     16583     16582     16585     16587
     16583     16582     16585     16588     16584     16582     16585     16586
     16584     16582     16585     16587     16584     16582     16585     16588
     16585     16588     16591     16592     16585     16588     16591     16593
     16585     16588     16591     16594     16586     16585     16588     16589
     16586     16585     16588     16590     16586     16585     16588     16591
     16587     16585     16588     16589     16587     16585     16588     16590
     16587     16585     16588     16591     16588     16591     16594     16595
     16588     16591     16594     16596     16588     16591     16594     16597
     16589     16588     16591     16592     16589     16588     16591     16593
     16589     16588     16591     16594     16590     16588     16591     16592
     16590     16588     16591     16593     16590     16588     16591     16594
     16591     16594     16597     16598     16591     16594     16597     16599
     16591     16594     16597     16600     16592     16591     16594     16595
     16592     16591     16594     16596     16592     16591     16594     16597
     16593     16591     16594     16595     16593     16591     16594     16596
     16593     16591     16594     16597     16594     16597     16600     16601
     16594     16597     16600     16602     16594     16597     16600     16603
     16595     16594     16597     16598     16595     16594     16597     16599
     16595     16594     16597     16600     16596     16594     16597     16598
     16596     16594     16597     16599     16596     16594     16597     16600
     16597     16600     16603     16604     16597     16600     16603     16605
     16597     16600     16603     16606     16598     16597     16600     16601
     16598     16597     16600     16602     16598     16597     16600     16603
     16599     16597     16600     16601     16599     16597     16600     16602
     16599     16597     16600     16603     16601     16600     16603     16604
     16601     16600     16603     16605     16601     16600     16603     16606
     16602     16600     16603     16604     16602     16600     16603     16605
     16602     16600     16603     16606     19489     19502     19505     19506
     19489     19502     19505     19507     19489     19502     19505     19511
     19490     19489     19494     19495     19490     19489     19494     19496
     19490     19489     19494     19497     19490     19489     19498     19499
     19490     19489     19498     19500     19490     19489     19498     19501
     19490     19489     19502     19503     19490     19489     19502     19504
     19490     19489     19502     19505     19491     19490     19489     19494
     19491     19490     19489     19498     19491     19490     19489     19502
     19492     19490     19489     19494     19492     19490     19489     19498
     19492     19490     19489     19502     19493     19490     19489     19494
     19493     19490     19489     19498     19493     19490     19489     19502
     19494     19489     19498     19499     19494     19489     19498     19500
     19494     19489     19498     19501     19494     19489     19502     19503
     19494     19489     19502     19504     19494     19489     19502     19505
     19495     19494     19489     19498     19495     19494     19489     19502
     19496     19494     19489     19498     19496     19494     19489     19502
     19497     19494     19489     19498     19497     19494     19489     19502
     19498     19489     19502     19503     19498     19489     19502     19504
     19498     19489     19502     19505     19499     19498     19489     19502
     19500     19498     19489     19502     19501     19498     19489     19502
     19502     19505     19511     19508     19503     19502     19505     19506
     19503     19502     19505     19507     19503     19502     19505     19511
     19504     19502     19505     19506     19504     19502     19505     19507
     19504     19502     19505     19511     19505     19511     19508     19509
     19505     19511     19508     19510     19505     19511     19508     19512
     19506     19505     19511     19508     19507     19505     19511     19508
     19508     19512     19513     19514     19508     19512     19513     19515
     19508     19512     19513     19516     19509     19508     19512     19513
     19510     19508     19512     19513     19511     19508     19512     19513
     19512     19513     19516     19517     19512     19513     19516     19518
     19512     19513     19516     19524     19513     19516     19518     19519
     19513     19516     19524     19525     19513     19516     19524     19526
     19513     19516     19524     19527     19514     19513     19516     19517
     19514     19513     19516     19518     19514     19513     19516     19524
     19515     19513     19516     19517     19515     19513     19516     19518
     19515     19513     19516     19524     19516     19518     19519     19520
     19516     19518     19519     19521     19516     19524     19527     19528
     19517     19516     19518     19519     19517     19516     19524     19525
     19517     19516     19524     19526     19517     19516     19524     19527
     19518     19516     19524     19525     19518     19516     19524     19526
     19518     19516     19524     19527     19518     19519     19521     19522
     19518     19519     19521     19523     19518     19519     19521     19533
     19519     19518     19516     19524     19519     19521     19533     19534
     19519     19521     19533     19535     19519     19521     19533     19536
     19520     19519     19521     19522     19520     19519     19521     19523
     19520     19519     19521     19533     19521     19533     19536     19537
     19521     19533     19536     19538     19521     19533     19536     19539
     19522     19521     19533     19534     19522     19521     19533     19535
     19522     19521     19533     19536     19523     19521     19533     19534
     19523     19521     19533     19535     19523     19521     19533     19536
     19524     19527     19528     19529     19524     19527     19528     19530
     19525     19524     19527     19528     19526     19524     19527     19528
     19527     19528     19530     19531     19527     19528     19530     19532
     19527     19528     19530     19578     19528     19530     19578     19579
     19528     19530     19578     19580     19528     19530     19578     19581
     19529     19528     19530     19531     19529     19528     19530     19532
     19529     19528     19530     19578     19530     19578     19581     19582
     19530     19578     19581     19583     19530     19578     19581     19584
     19531     19530     19578     19579     19531     19530     19578     19580
     19531     19530     19578     19581     19532     19530     19578     19579
     19532     19530     19578     19580     19532     19530     19578     19581
     19533     19536     19539     19540     19533     19536     19539     19541
     19533     19536     19539     19542     19534     19533     19536     19537
     19534     19533     19536     19538     19534     19533     19536     19539
     19535     19533     19536     19537     19535     19533     19536     19538
     19535     19533     19536     19539     19536     19539     19542     19543
     19536     19539     19542     19544     19536     19539     19542     19545
     19537     19536     19539     19540     19537     19536     19539     19541
     19537     19536     19539     19542     19538     19536     19539     19540
     19538     19536     19539     19541     19538     19536     19539     19542
     19539     19542     19545     19546     19539     19542     19545     19547
     19539     19542     19545     19548     19540     19539     19542     19543
     19540     19539     19542     19544     19540     19539     19542     19545
     19541     19539     19542     19543     19541     19539     19542     19544
     19541     19539     19542     19545     19542     19545     19548     19549
     19542     19545     19548     19550     19542     19545     19548     19551
     19543     19542     19545     19546     19543     19542     19545     19547
     19543     19542     19545     19548     19544     19542     19545     19546
     19544     19542     19545     19547     19544     19542     19545     19548
     19545     19548     19551     19552     19545     19548     19551     19553
     19546     19545     19548     19549     19546     19545     19548     19550
     19546     19545     19548     19551     19547     19545     19548     19549
     19547     19545     19548     19550     19547     19545     19548     19551
     19548     19551     19553     19554     19548     19551     19553     19555
     19549     19548     19551     19552     19549     19548     19551     19553
     19550     19548     19551     19552     19550     19548     19551     19553
     19551     19553     19555     19556     19551     19553     19555     19557
     19551     19553     19555     19558     19552     19551     19553     19554
     19552     19551     19553     19555     19553     19555     19558     19559
     19553     19555     19558     19560     19554     19553     19555     19556
     19554     19553     19555     19557     19554     19553     19555     19558
     19555     19558     19560     19561     19555     19558     19560     19562
     19556     19555     19558     19559     19556     19555     19558     19560
     19557     19555     19558     19559     19557     19555     19558     19560
     19558     19560     19562     19563     19558     19560     19562     19564
     19558     19560     19562     19565     19559     19558     19560     19561
     19559     19558     19560     19562     19560     19562     19565     19566
     19560     19562     19565     19567     19560     19562     19565     19568
     19561     19560     19562     19563     19561     19560     19562     19564
     19561     19560     19562     19565     19562     19565     19568     19569
     19562     19565     19568     19570     19562     19565     19568     19571
     19563     19562     19565     19566     19563     19562     19565     19567
     19563     19562     19565     19568     19564     19562     19565     19566
     19564     19562     19565     19567     19564     19562     19565     19568
     19565     19568     19571     19572     19565     19568     19571     19573
     19565     19568     19571     19574     19566     19565     19568     19569
     19566     19565     19568     19570     19566     19565     19568     19571
     19567     19565     19568     19569     19567     19565     19568     19570
     19567     19565     19568     19571     19568     19571     19574     19575
     19568     19571     19574     19576     19568     19571     19574     19577
     19569     19568     19571     19572     19569     19568     19571     19573
     19569     19568     19571     19574     19570     19568     19571     19572
     19570     19568     19571     19573     19570     19568     19571     19574
     19572     19571     19574     19575     19572     19571     19574     19576
     19572     19571     19574     19577     19573     19571     19574     19575
     19573     19571     19574     19576     19573     19571     19574     19577
     19578     19581     19584     19585     19578     19581     19584     19586
     19578     19581     19584     19587     19579     19578     19581     19582
     19579     19578     19581     19583     19579     19578     19581     19584
     19580     19578     19581     19582     19580     19578     19581     19583
     19580     19578     19581     19584     19581     19584     19587     19588
     19581     19584     19587     19589     19581     19584     19587     19590
     19582     19581     19584     19585     19582     19581     19584     19586
     19582     19581     19584     19587     19583     19581     19584     19585
     19583     19581     19584     19586     19583     19581     19584     19587
     19584     19587     19590     19591     19584     19587     19590     19592
     19584     19587     19590     19593     19585     19584     19587     19588
     19585     19584     19587     19589     19585     19584     19587     19590
     19586     19584     19587     19588     19586     19584     19587     19589
     19586     19584     19587     19590     19587     19590     19593     19594
     19587     19590     19593     19595     19587     19590     19593     19596
     19588     19587     19590     19591     19588     19587     19590     19592
     19588     19587     19590     19593     19589     19587     19590     19591
     19589     19587     19590     19592     19589     19587     19590     19593
     19590     19593     19596     19597     19590     19593     19596     19598
     19590     19593     19596     19599     19591     19590     19593     19594
     19591     19590     19593     19595     19591     19590     19593     19596
     19592     19590     19593     19594     19592     19590     19593     19595
     19592     19590     19593     19596     19593     19596     19599     19600
     19593     19596     19599     19601     19593     19596     19599     19602
     19594     19593     19596     19597     19594     19593     19596     19598
     19594     19593     19596     19599     19595     19593     19596     19597
     19595     19593     19596     19598     19595     19593     19596     19599
     19596     19599     19602     19603     19596     19599     19602     19604
     19596     19599     19602     19605     19597     19596     19599     19600
     19597     19596     19599     19601     19597     19596     19599     19602
     19598     19596     19599     19600     19598     19596     19599     19601
     19598     19596     19599     19602     19599     19602     19605     19606
     19599     19602     19605     19607     19599     19602     19605     19608
     19600     19599     19602     19603     19600     19599     19602     19604
     19600     19599     19602     19605     19601     19599     19602     19603
     19601     19599     19602     19604     19601     19599     19602     19605
     19602     19605     19608     19609     19602     19605     19608     19610
     19602     19605     19608     19611     19603     19602     19605     19606
     19603     19602     19605     19607     19603     19602     19605     19608
     19604     19602     19605     19606     19604     19602     19605     19607
     19604     19602     19605     19608     19605     19608     19611     19612
     19605     19608     19611     19613     19605     19608     19611     19614
     19606     19605     19608     19609     19606     19605     19608     19610
     19606     19605     19608     19611     19607     19605     19608     19609
     19607     19605     19608     19610     19607     19605     19608     19611
     19608     19611     19614     19615     19608     19611     19614     19616
     19608     19611     19614     19617     19609     19608     19611     19612
     19609     19608     19611     19613     19609     19608     19611     19614
     19610     19608     19611     19612     19610     19608     19611     19613
     19610     19608     19611     19614     19611     19614     19617     19618
     19611     19614     19617     19619     19611     19614     19617     19620
     19612     19611     19614     19615     19612     19611     19614     19616
     19612     19611     19614     19617     19613     19611     19614     19615
     19613     19611     19614     19616     19613     19611     19614     19617
     19614     19617     19620     19621     19614     19617     19620     19622
     19614     19617     19620     19623     19615     19614     19617     19618
     19615     19614     19617     19619     19615     19614     19617     19620
     19616     19614     19617     19618     19616     19614     19617     19619
     19616     19614     19617     19620     19617     19620     19623     19624
     19617     19620     19623     19625     19617     19620     19623     19626
     19618     19617     19620     19621     19618     19617     19620     19622
     19618     19617     19620     19623     19619     19617     19620     19621
     19619     19617     19620     19622     19619     19617     19620     19623
     19621     19620     19623     19624     19621     19620     19623     19625
     19621     19620     19623     19626     19622     19620     19623     19624
     19622     19620     19623     19625     19622     19620     19623     19626
      3475      3479      3482      3483      3475      3479      3482      3513
      3475      3521      3518      3513      3475      3521      3518      3519
      3475      3521      3518      3520      3476      3475      3477      3478
      3476      3475      3479      3480      3476      3475      3479      3481
      3476      3475      3479      3482      3476      3475      3521      3518
      3476      3475      3521      3522      3476      3475      3521      3523
      3477      3475      3479      3480      3477      3475      3479      3481
      3477      3475      3479      3482      3477      3475      3521      3518
      3477      3475      3521      3522      3477      3475      3521      3523
      3478      3477      3475      3479      3478      3477      3475      3521
      3479      3475      3521      3518      3479      3475      3521      3522
      3479      3475      3521      3523      3479      3482      3483      3484
      3479      3482      3483      3485      3479      3482      3513      3511
      3479      3482      3513      3514      3479      3482      3513      3518
      3480      3479      3475      3521      3480      3479      3482      3483
      3480      3479      3482      3513      3481      3479      3475      3521
      3481      3479      3482      3483      3481      3479      3482      3513
      3482      3479      3475      3521      3482      3483      3485      3486
      3482      3483      3485      3487      3482      3483      3485      3488
      3482      3513      3511      3488      3482      3513      3511      3508
      3482      3513      3511      3512      3482      3513      3514      3515
      3482      3513      3514      3516      3482      3513      3514      3517
      3482      3513      3518      3519      3482      3513      3518      3520
      3482      3513      3518      3521      3483      3482      3513      3511
      3483      3482      3513      3514      3483      3482      3513      3518
      3483      3485      3488      3489      3483      3485      3488      3490
      3483      3485      3488      3511      3484      3483      3482      3513
      3484      3483      3485      3486      3484      3483      3485      3487
      3484      3483      3485      3488      3485      3483      3482      3513
      3485      3488      3490      3491      3485      3488      3490      3492
      3485      3488      3490      3500      3485      3488      3511      3508
      3485      3488      3511      3512      3485      3488      3511      3513
      3486      3485      3488      3489      3486      3485      3488      3490
      3486      3485      3488      3511      3487      3485      3488      3489
      3487      3485      3488      3490      3487      3485      3488      3511
      3488      3490      3492      3493      3488      3490      3492      3494
      3488      3490      3492      3495      3488      3490      3500      3498
      3488      3490      3500      3501      3488      3490      3500      3505
      3488      3511      3508      3505      3488      3511      3508      3509
      3488      3511      3508      3510      3488      3511      3513      3514
      3488      3511      3513      3518      3489      3488      3490      3491
      3489      3488      3490      3492      3489      3488      3490      3500
      3489      3488      3511      3508      3489      3488      3511      3512
      3489      3488      3511      3513      3490      3488      3511      3508
      3490      3488      3511      3512      3490      3488      3511      3513
      3490      3492      3495      3496      3490      3492      3495      3497
      3490      3492      3495      3498      3490      3500      3498      3495
      3490      3500      3498      3499      3490      3500      3498      3524
      3490      3500      3501      3502      3490      3500      3501      3503
      3490      3500      3501      3504      3490      3500      3505      3506
      3490      3500      3505      3507      3490      3500      3505      3508
      3491      3490      3488      3511      3491      3490      3492      3493
      3491      3490      3492      3494      3491      3490      3492      3495
      3491      3490      3500      3498      3491      3490      3500      3501
      3491      3490      3500      3505      3492      3490      3488      3511
      3492      3490      3500      3498      3492      3490      3500      3501
      3492      3490      3500      3505      3492      3495      3498      3499
      3492      3495      3498      3500      3492      3495      3498      3524
      3493      3492      3490      3500      3493      3492      3495      3496
      3493      3492      3495      3497      3493      3492      3495      3498
      3494      3492      3490      3500      3494      3492      3495      3496
      3494      3492      3495      3497      3494      3492      3495      3498
      3495      3492      3490      3500      3495      3498      3500      3501
      3495      3498      3500      3505      3495      3498      3524      3525
      3495      3498      3524      3526      3495      3498      3524      3530
      3496      3495      3498      3499      3496      3495      3498      3500
      3496      3495      3498      3524      3497      3495      3498      3499
      3497      3495      3498      3500      3497      3495      3498      3524
      3498      3500      3501      3502      3498      3500      3501      3503
      3498      3500      3501      3504      3498      3500      3505      3506
      3498      3500      3505      3507      3498      3500      3505      3508
      3498      3524      3526      3527      3498      3524      3526      3528
      3498      3524      3526      3529      3498      3524      3530      3531
      3498      3524      3530      3532      3498      3524      3530      3533
      3499      3498      3500      3501      3499      3498      3500      3505
      3499      3498      3524      3525      3499      3498      3524      3526
      3499      3498      3524      3530      3500      3490      3488      3511
      3500      3498      3524      3525      3500      3498      3524      3526
      3500      3498      3524      3530      3500      3505      3508      3509
      3500      3505      3508      3510      3500      3505      3508      3511
      3501      3500      3498      3524      3501      3500      3505      3506
      3501      3500      3505      3507      3501      3500      3505      3508
      3502      3501      3500      3505      3503      3501      3500      3505
      3504      3501      3500      3505      3505      3500      3498      3524
      3505      3508      3511      3512      3505      3508      3511      3513
      3506      3505      3508      3509      3506      3505      3508      3510
      3506      3505      3508      3511      3507      3505      3508      3509
      3507      3505      3508      3510      3507      3505      3508      3511
      3508      3511      3513      3514      3508      3511      3513      3518
      3509      3508      3511      3512      3509      3508      3511      3513
      3510      3508      3511      3512      3510      3508      3511      3513
      3511      3513      3514      3515      3511      3513      3514      3516
      3511      3513      3514      3517      3511      3513      3518      3519
      3511      3513      3518      3520      3511      3513      3518      3521
      3512      3511      3513      3514      3512      3511      3513      3518
      3513      3518      3521      3522      3513      3518      3521      3523
      3514      3513      3518      3519      3514      3513      3518      3520
      3514      3513      3518      3521      3515      3514      3513      3518
      3516      3514      3513      3518      3517      3514      3513      3518
      3519      3518      3521      3522      3519      3518      3521      3523
      3520      3518      3521      3522      3520      3518      3521      3523
      3524      3530      3533      3534      3524      3530      3533      3535
      3524      3530      3533      3536      3525      3524      3526      3527
      3525      3524      3526      3528      3525      3524      3526      3529
      3525      3524      3530      3531      3525      3524      3530      3532
      3525      3524      3530      3533      3526      3524      3530      3531
      3526      3524      3530      3532      3526      3524      3530      3533
      3527      3526      3524      3530      3528      3526      3524      3530
      3529      3526      3524      3530      3530      3533      3536      3537
      3530      3533      3536      3538      3530      3533      3536      3539
      3531      3530      3533      3534      3531      3530      3533      3535
      3531      3530      3533      3536      3532      3530      3533      3534
      3532      3530      3533      3535      3532      3530      3533      3536
      3533      3536      3539      3540      3533      3536      3539      3541
      3533      3536      3539      3545      3534      3533      3536      3537
      3534      3533      3536      3538      3534      3533      3536      3539
      3535      3533      3536      3537      3535      3533      3536      3538
      3535      3533      3536      3539      3536      3539      3541      3542
      3536      3539      3541      3543      3536      3539      3541      3544
      3536      3539      3545      3546      3536      3539      3545      3547
      3536      3539      3545      3548      3537      3536      3539      3540
      3537      3536      3539      3541      3537      3536      3539      3545
      3538      3536      3539      3540      3538      3536      3539      3541
      3538      3536      3539      3545      3540      3539      3541      3542
      3540      3539      3541      3543      3540      3539      3541      3544
      3540      3539      3545      3546      3540      3539      3545      3547
      3540      3539      3545      3548      3541      3539      3545      3546
      3541      3539      3545      3547      3541      3539      3545      3548
      3542      3541      3539      3545      3543      3541      3539      3545
      3544      3541      3539      3545     16607     16611     16614     16615
     16607     16611     16614     16616     16607     16611     16614     16620
     16608     16607     16611     16612     16608     16607     16611     16613
     16608     16607     16611     16614     16609     16607     16611     16612
     16609     16607     16611     16613     16609     16607     16611     16614
     16610     16607     16611     16612     16610     16607     16611     16613
     16610     16607     16611     16614     16611     16614     16620     16617
     16612     16611     16614     16615     16612     16611     16614     16616
     16612     16611     16614     16620     16613     16611     16614     16615
     16613     16611     16614     16616     16613     16611     16614     16620
     16614     16620     16617     16618     16614     16620     16617     16619
     16614     16620     16617     16621     16615     16614     16620     16617
     16616     16614     16620     16617     16617     16621     16622     16623
     16617     16621     16622     16624     16617     16621     16622     16625
     16618     16617     16621     16622     16619     16617     16621     16622
     16620     16617     16621     16622     16621     16622     16625     16626
     16621     16622     16625     16627     16621     16622     16625     16633
     16622     16625     16627     16628     16622     16625     16633     16634
     16622     16625     16633     16635     16622     16625     16633     16636
     16623     16622     16625     16626     16623     16622     16625     16627
     16623     16622     16625     16633     16624     16622     16625     16626
     16624     16622     16625     16627     16624     16622     16625     16633
     16625     16627     16628     16629     16625     16627     16628     16630
     16625     16633     16636     16637     16626     16625     16627     16628
     16626     16625     16633     16634     16626     16625     16633     16635
     16626     16625     16633     16636     16627     16625     16633     16634
     16627     16625     16633     16635     16627     16625     16633     16636
     16627     16628     16630     16631     16627     16628     16630     16632
     16627     16628     16630     16642     16628     16627     16625     16633
     16628     16630     16642     16643     16628     16630     16642     16644
     16628     16630     16642     16645     16629     16628     16630     16631
     16629     16628     16630     16632     16629     16628     16630     16642
     16630     16642     16645     16646     16630     16642     16645     16647
     16630     16642     16645     16648     16631     16630     16642     16643
     16631     16630     16642     16644     16631     16630     16642     16645
     16632     16630     16642     16643     16632     16630     16642     16644
     16632     16630     16642     16645     16633     16636     16637     16638
     16633     16636     16637     16639     16634     16633     16636     16637
     16635     16633     16636     16637     16636     16637     16639     16640
     16636     16637     16639     16641     16636     16637     16639     16689
     16637     16639     16689     16690     16637     16639     16689     16691
     16637     16639     16689     16692     16638     16637     16639     16640
     16638     16637     16639     16641     16638     16637     16639     16689
     16639     16689     16692     16693     16639     16689     16692     16694
     16639     16689     16692     16695     16640     16639     16689     16690
     16640     16639     16689     16691     16640     16639     16689     16692
     16641     16639     16689     16690     16641     16639     16689     16691
     16641     16639     16689     16692     16642     16645     16648     16649
     16642     16645     16648     16650     16643     16642     16645     16646
     16643     16642     16645     16647     16643     16642     16645     16648
     16644     16642     16645     16646     16644     16642     16645     16647
     16644     16642     16645     16648     16645     16648     16650     16651
     16645     16648     16650     16652     16646     16645     16648     16649
     16646     16645     16648     16650     16647     16645     16648     16649
     16647     16645     16648     16650     16648     16650     16652     16653
     16648     16650     16652     16654     16648     16650     16652     16655
     16649     16648     16650     16651     16649     16648     16650     16652
     16650     16652     16655     16656     16650     16652     16655     16657
     16651     16650     16652     16653     16651     16650     16652     16654
     16651     16650     16652     16655     16652     16655     16657     16658
     16652     16655     16657     16659     16653     16652     16655     16656
     16653     16652     16655     16657     16654     16652     16655     16656
     16654     16652     16655     16657     16655     16657     16659     16660
     16655     16657     16659     16661     16655     16657     16659     16662
     16656     16655     16657     16658     16656     16655     16657     16659
     16657     16659     16662     16663     16657     16659     16662     16664
     16658     16657     16659     16660     16658     16657     16659     16661
     16658     16657     16659     16662     16659     16662     16664     16665
     16659     16662     16664     16666     16660     16659     16662     16663
     16660     16659     16662     16664     16661     16659     16662     16663
     16661     16659     16662     16664     16662     16664     16666     16667
     16662     16664     16666     16668     16662     16664     16666     16669
     16663     16662     16664     16665     16663     16662     16664     16666
     16664     16666     16669     16670     16664     16666     16669     16671
     16665     16664     16666     16667     16665     16664     16666     16668
     16665     16664     16666     16669     16666     16669     16671     16672
     16666     16669     16671     16673     16667     16666     16669     16670
     16667     16666     16669     16671     16668     16666     16669     16670
     16668     16666     16669     16671     16669     16671     16673     16674
     16669     16671     16673     16675     16669     16671     16673     16676
     16670     16669     16671     16672     16670     16669     16671     16673
     16671     16673     16676     16677     16671     16673     16676     16678
     16671     16673     16676     16679     16672     16671     16673     16674
     16672     16671     16673     16675     16672     16671     16673     16676
     16673     16676     16679     16680     16673     16676     16679     16681
     16673     16676     16679     16682     16674     16673     16676     16677
     16674     16673     16676     16678     16674     16673     16676     16679
     16675     16673     16676     16677     16675     16673     16676     16678
     16675     16673     16676     16679     16676     16679     16682     16683
     16676     16679     16682     16684     16676     16679     16682     16685
     16677     16676     16679     16680     16677     16676     16679     16681
     16677     16676     16679     16682     16678     16676     16679     16680
     16678     16676     16679     16681     16678     16676     16679     16682
     16679     16682     16685     16686     16679     16682     16685     16687
     16679     16682     16685     16688     16680     16679     16682     16683
     16680     16679     16682     16684     16680     16679     16682     16685
     16681     16679     16682     16683     16681     16679     16682     16684
     16681     16679     16682     16685     16683     16682     16685     16686
     16683     16682     16685     16687     16683     16682     16685     16688
     16684     16682     16685     16686     16684     16682     16685     16687
     16684     16682     16685     16688     16689     16692     16695     16696
     16689     16692     16695     16697     16689     16692     16695     16698
     16690     16689     16692     16693     16690     16689     16692     16694
     16690     16689     16692     16695     16691     16689     16692     16693
     16691     16689     16692     16694     16691     16689     16692     16695
     16692     16695     16698     16699     16692     16695     16698     16700
     16692     16695     16698     16701     16693     16692     16695     16696
     16693     16692     16695     16697     16693     16692     16695     16698
     16694     16692     16695     16696     16694     16692     16695     16697
     16694     16692     16695     16698     16695     16698     16701     16702
     16695     16698     16701     16703     16695     16698     16701     16704
     16696     16695     16698     16699     16696     16695     16698     16700
     16696     16695     16698     16701     16697     16695     16698     16699
     16697     16695     16698     16700     16697     16695     16698     16701
     16698     16701     16704     16705     16698     16701     16704     16706
     16698     16701     16704     16707     16699     16698     16701     16702
     16699     16698     16701     16703     16699     16698     16701     16704
     16700     16698     16701     16702     16700     16698     16701     16703
     16700     16698     16701     16704     16701     16704     16707     16708
     16701     16704     16707     16709     16701     16704     16707     16710
     16702     16701     16704     16705     16702     16701     16704     16706
     16702     16701     16704     16707     16703     16701     16704     16705
     16703     16701     16704     16706     16703     16701     16704     16707
     16704     16707     16710     16711     16704     16707     16710     16712
     16704     16707     16710     16713     16705     16704     16707     16708
     16705     16704     16707     16709     16705     16704     16707     16710
     16706     16704     16707     16708     16706     16704     16707     16709
     16706     16704     16707     16710     16707     16710     16713     16714
     16707     16710     16713     16715     16707     16710     16713     16716
     16708     16707     16710     16711     16708     16707     16710     16712
     16708     16707     16710     16713     16709     16707     16710     16711
     16709     16707     16710     16712     16709     16707     16710     16713
     16710     16713     16716     16717     16710     16713     16716     16718
     16710     16713     16716     16719     16711     16710     16713     16714
     16711     16710     16713     16715     16711     16710     16713     16716
     16712     16710     16713     16714     16712     16710     16713     16715
     16712     16710     16713     16716     16713     16716     16719     16720
     16713     16716     16719     16721     16713     16716     16719     16722
     16714     16713     16716     16717     16714     16713     16716     16718
     16714     16713     16716     16719     16715     16713     16716     16717
     16715     16713     16716     16718     16715     16713     16716     16719
     16716     16719     16722     16723     16716     16719     16722     16724
     16716     16719     16722     16725     16717     16716     16719     16720
     16717     16716     16719     16721     16717     16716     16719     16722
     16718     16716     16719     16720     16718     16716     16719     16721
     16718     16716     16719     16722     16719     16722     16725     16726
     16719     16722     16725     16727     16719     16722     16725     16728
     16720     16719     16722     16723     16720     16719     16722     16724
     16720     16719     16722     16725     16721     16719     16722     16723
     16721     16719     16722     16724     16721     16719     16722     16725
     16722     16725     16728     16729     16722     16725     16728     16730
     16722     16725     16728     16731     16723     16722     16725     16726
     16723     16722     16725     16727     16723     16722     16725     16728
     16724     16722     16725     16726     16724     16722     16725     16727
     16724     16722     16725     16728     16725     16728     16731     16732
     16725     16728     16731     16733     16725     16728     16731     16734
     16726     16725     16728     16729     16726     16725     16728     16730
     16726     16725     16728     16731     16727     16725     16728     16729
     16727     16725     16728     16730     16727     16725     16728     16731
     16728     16731     16734     16735     16728     16731     16734     16736
     16728     16731     16734     16737     16729     16728     16731     16732
     16729     16728     16731     16733     16729     16728     16731     16734
     16730     16728     16731     16732     16730     16728     16731     16733
     16730     16728     16731     16734     16732     16731     16734     16735
     16732     16731     16734     16736     16732     16731     16734     16737
     16733     16731     16734     16735     16733     16731     16734     16736
     16733     16731     16734     16737      3549      3553      3556      3557
      3549      3553      3556      3587      3549      3595      3592      3587
      3549      3595      3592      3593      3549      3595      3592      3594
      3550      3549      3551      3552      3550      3549      3553      3554
      3550      3549      3553      3555      3550      3549      3553      3556
      3550      3549      3595      3592      3550      3549      3595      3596
      3550      3549      3595      3597      3551      3549      3553      3554
      3551      3549      3553      3555      3551      3549      3553      3556
      3551      3549      3595      3592      3551      3549      3595      3596
      3551      3549      3595      3597      3552      3551      3549      3553
      3552      3551      3549      3595      3553      3549      3595      3592
      3553      3549      3595      3596      3553      3549      3595      3597
      3553      3556      3557      3558      3553      3556      3557      3559
      3553      3556      3587      3585      3553      3556      3587      3588
      3553      3556      3587      3592      3554      3553      3549      3595
      3554      3553      3556      3557      3554      3553      3556      3587
      3555      3553      3549      3595      3555      3553      3556      3557
      3555      3553      3556      3587      3556      3553      3549      3595
      3556      3557      3559      3560      3556      3557      3559      3561
      3556      3557      3559      3562      3556      3587      3585      3562
      3556      3587      3585      3582      3556      3587      3585      3586
      3556      3587      3588      3589      3556      3587      3588      3590
      3556      3587      3588      3591      3556      3587      3592      3593
      3556      3587      3592      3594      3556      3587      3592      3595
      3557      3556      3587      3585      3557      3556      3587      3588
      3557      3556      3587      3592      3557      3559      3562      3563
      3557      3559      3562      3564      3557      3559      3562      3585
      3558      3557      3556      3587      3558      3557      3559      3560
      3558      3557      3559      3561      3558      3557      3559      3562
      3559      3557      3556      3587      3559      3562      3564      3565
      3559      3562      3564      3566      3559      3562      3564      3574
      3559      3562      3585      3582      3559      3562      3585      3586
      3559      3562      3585      3587      3560      3559      3562      3563
      3560      3559      3562      3564      3560      3559      3562      3585
      3561      3559      3562      3563      3561      3559      3562      3564
      3561      3559      3562      3585      3562      3564      3566      3567
      3562      3564      3566      3568      3562      3564      3566      3569
      3562      3564      3574      3572      3562      3564      3574      3575
      3562      3564      3574      3579      3562      3585      3582      3579
      3562      3585      3582      3583      3562      3585      3582      3584
      3562      3585      3587      3588      3562      3585      3587      3592
      3563      3562      3564      3565      3563      3562      3564      3566
      3563      3562      3564      3574      3563      3562      3585      3582
      3563      3562      3585      3586      3563      3562      3585      3587
      3564      3562      3585      3582      3564      3562      3585      3586
      3564      3562      3585      3587      3564      3566      3569      3570
      3564      3566      3569      3571      3564      3566      3569      3572
      3564      3574      3572      3569      3564      3574      3572      3573
      3564      3574      3572      3598      3564      3574      3575      3576
      3564      3574      3575      3577      3564      3574      3575      3578
      3564      3574      3579      3580      3564      3574      3579      3581
      3564      3574      3579      3582      3565      3564      3562      3585
      3565      3564      3566      3567      3565      3564      3566      3568
      3565      3564      3566      3569      3565      3564      3574      3572
      3565      3564      3574      3575      3565      3564      3574      3579
      3566      3564      3562      3585      3566      3564      3574      3572
      3566      3564      3574      3575      3566      3564      3574      3579
      3566      3569      3572      3573      3566      3569      3572      3574
      3566      3569      3572      3598      3567      3566      3564      3574
      3567      3566      3569      3570      3567      3566      3569      3571
      3567      3566      3569      3572      3568      3566      3564      3574
      3568      3566      3569      3570      3568      3566      3569      3571
      3568      3566      3569      3572      3569      3566      3564      3574
      3569      3572      3574      3575      3569      3572      3574      3579
      3569      3572      3598      3599      3569      3572      3598      3600
      3569      3572      3598      3604      3570      3569      3572      3573
      3570      3569      3572      3574      3570      3569      3572      3598
      3571      3569      3572      3573      3571      3569      3572      3574
      3571      3569      3572      3598      3572      3574      3575      3576
      3572      3574      3575      3577      3572      3574      3575      3578
      3572      3574      3579      3580      3572      3574      3579      3581
      3572      3574      3579      3582      3572      3598      3600      3601
      3572      3598      3600      3602      3572      3598      3600      3603
      3572      3598      3604      3605      3572      3598      3604      3606
      3572      3598      3604      3607      3573      3572      3574      3575
      3573      3572      3574      3579      3573      3572      3598      3599
      3573      3572      3598      3600      3573      3572      3598      3604
      3574      3564      3562      3585      3574      3572      3598      3599
      3574      3572      3598      3600      3574      3572      3598      3604
      3574      3579      3582      3583      3574      3579      3582      3584
      3574      3579      3582      3585      3575      3574      3572      3598
      3575      3574      3579      3580      3575      3574      3579      3581
      3575      3574      3579      3582      3576      3575      3574      3579
      3577      3575      3574      3579      3578      3575      3574      3579
      3579      3574      3572      3598      3579      3582      3585      3586
      3579      3582      3585      3587      3580      3579      3582      3583
      3580      3579      3582      3584      3580      3579      3582      3585
      3581      3579      3582      3583      3581      3579      3582      3584
      3581      3579      3582      3585      3582      3585      3587      3588
      3582      3585      3587      3592      3583      3582      3585      3586
      3583      3582      3585      3587      3584      3582      3585      3586
      3584      3582      3585      3587      3585      3587      3588      3589
      3585      3587      3588      3590      3585      3587      3588      3591
      3585      3587      3592      3593      3585      3587      3592      3594
      3585      3587      3592      3595      3586      3585      3587      3588
      3586      3585      3587      3592      3587      3592      3595      3596
      3587      3592      3595      3597      3588      3587      3592      3593
      3588      3587      3592      3594      3588      3587      3592      3595
      3589      3588      3587      3592      3590      3588      3587      3592
      3591      3588      3587      3592      3593      3592      3595      3596
      3593      3592      3595      3597      3594      3592      3595      3596
      3594      3592      3595      3597      3598      3604      3607      3608
      3598      3604      3607      3609      3598      3604      3607      3610
      3599      3598      3600      3601      3599      3598      3600      3602
      3599      3598      3600      3603      3599      3598      3604      3605
      3599      3598      3604      3606      3599      3598      3604      3607
      3600      3598      3604      3605      3600      3598      3604      3606
      3600      3598      3604      3607      3601      3600      3598      3604
      3602      3600      3598      3604      3603      3600      3598      3604
      3604      3607      3610      3611      3604      3607      3610      3612
      3604      3607      3610      3613      3605      3604      3607      3608
      3605      3604      3607      3609      3605      3604      3607      3610
      3606      3604      3607      3608      3606      3604      3607      3609
      3606      3604      3607      3610      3607      3610      3613      3614
      3607      3610      3613      3615      3607      3610      3613      3619
      3608      3607      3610      3611      3608      3607      3610      3612
      3608      3607      3610      3613      3609      3607      3610      3611
      3609      3607      3610      3612      3609      3607      3610      3613
      3610      3613      3615      3616      3610      3613      3615      3617
      3610      3613      3615      3618      3610      3613      3619      3620
      3610      3613      3619      3621      3610      3613      3619      3622
      3611      3610      3613      3614      3611      3610      3613      3615
      3611      3610      3613      3619      3612      3610      3613      3614
      3612      3610      3613      3615      3612      3610      3613      3619
      3614      3613      3615      3616      3614      3613      3615      3617
      3614      3613      3615      3618      3614      3613      3619      3620
      3614      3613      3619      3621      3614      3613      3619      3622
      3615      3613      3619      3620      3615      3613      3619      3621
      3615      3613      3619      3622      3616      3615      3613      3619
      3617      3615      3613      3619      3618      3615      3613      3619
      3623      3627      3630      3631      3623      3627      3630      3661
      3623      3669      3666      3661      3623      3669      3666      3667
      3623      3669      3666      3668      3624      3623      3625      3626
      3624      3623      3627      3628      3624      3623      3627      3629
      3624      3623      3627      3630      3624      3623      3669      3666
      3624      3623      3669      3670      3624      3623      3669      3671
      3625      3623      3627      3628      3625      3623      3627      3629
      3625      3623      3627      3630      3625      3623      3669      3666
      3625      3623      3669      3670      3625      3623      3669      3671
      3626      3625      3623      3627      3626      3625      3623      3669
      3627      3623      3669      3666      3627      3623      3669      3670
      3627      3623      3669      3671      3627      3630      3631      3632
      3627      3630      3631      3633      3627      3630      3661      3659
      3627      3630      3661      3662      3627      3630      3661      3666
      3628      3627      3623      3669      3628      3627      3630      3631
      3628      3627      3630      3661      3629      3627      3623      3669
      3629      3627      3630      3631      3629      3627      3630      3661
      3630      3627      3623      3669      3630      3631      3633      3634
      3630      3631      3633      3635      3630      3631      3633      3636
      3630      3661      3659      3636      3630      3661      3659      3656
      3630      3661      3659      3660      3630      3661      3662      3663
      3630      3661      3662      3664      3630      3661      3662      3665
      3630      3661      3666      3667      3630      3661      3666      3668
      3630      3661      3666      3669      3631      3630      3661      3659
      3631      3630      3661      3662      3631      3630      3661      3666
      3631      3633      3636      3637      3631      3633      3636      3638
      3631      3633      3636      3659      3632      3631      3630      3661
      3632      3631      3633      3634      3632      3631      3633      3635
      3632      3631      3633      3636      3633      3631      3630      3661
      3633      3636      3638      3639      3633      3636      3638      3640
      3633      3636      3638      3648      3633      3636      3659      3656
      3633      3636      3659      3660      3633      3636      3659      3661
      3634      3633      3636      3637      3634      3633      3636      3638
      3634      3633      3636      3659      3635      3633      3636      3637
      3635      3633      3636      3638      3635      3633      3636      3659
      3636      3638      3640      3641      3636      3638      3640      3642
      3636      3638      3640      3643      3636      3638      3648      3646
      3636      3638      3648      3649      3636      3638      3648      3653
      3636      3659      3656      3653      3636      3659      3656      3657
      3636      3659      3656      3658      3636      3659      3661      3662
      3636      3659      3661      3666      3637      3636      3638      3639
      3637      3636      3638      3640      3637      3636      3638      3648
      3637      3636      3659      3656      3637      3636      3659      3660
      3637      3636      3659      3661      3638      3636      3659      3656
      3638      3636      3659      3660      3638      3636      3659      3661
      3638      3640      3643      3644      3638      3640      3643      3645
      3638      3640      3643      3646      3638      3648      3646      3643
      3638      3648      3646      3647      3638      3648      3646      3672
      3638      3648      3649      3650      3638      3648      3649      3651
      3638      3648      3649      3652      3638      3648      3653      3654
      3638      3648      3653      3655      3638      3648      3653      3656
      3639      3638      3636      3659      3639      3638      3640      3641
      3639      3638      3640      3642      3639      3638      3640      3643
      3639      3638      3648      3646      3639      3638      3648      3649
      3639      3638      3648      3653      3640      3638      3636      3659
      3640      3638      3648      3646      3640      3638      3648      3649
      3640      3638      3648      3653      3640      3643      3646      3647
      3640      3643      3646      3648      3640      3643      3646      3672
      3641      3640      3638      3648      3641      3640      3643      3644
      3641      3640      3643      3645      3641      3640      3643      3646
      3642      3640      3638      3648      3642      3640      3643      3644
      3642      3640      3643      3645      3642      3640      3643      3646
      3643      3640      3638      3648      3643      3646      3648      3649
      3643      3646      3648      3653      3643      3646      3672      3673
      3643      3646      3672      3674      3643      3646      3672      3678
      3644      3643      3646      3647      3644      3643      3646      3648
      3644      3643      3646      3672      3645      3643      3646      3647
      3645      3643      3646      3648      3645      3643      3646      3672
      3646      3648      3649      3650      3646      3648      3649      3651
      3646      3648      3649      3652      3646      3648      3653      3654
      3646      3648      3653      3655      3646      3648      3653      3656
      3646      3672      3674      3675      3646      3672      3674      3676
      3646      3672      3674      3677      3646      3672      3678      3679
      3646      3672      3678      3680      3646      3672      3678      3681
      3647      3646      3648      3649      3647      3646      3648      3653
      3647      3646      3672      3673      3647      3646      3672      3674
      3647      3646      3672      3678      3648      3638      3636      3659
      3648      3646      3672      3673      3648      3646      3672      3674
      3648      3646      3672      3678      3648      3653      3656      3657
      3648      3653      3656      3658      3648      3653      3656      3659
      3649      3648      3646      3672      3649      3648      3653      3654
      3649      3648      3653      3655      3649      3648      3653      3656
      3650      3649      3648      3653      3651      3649      3648      3653
      3652      3649      3648      3653      3653      3648      3646      3672
      3653      3656      3659      3660      3653      3656      3659      3661
      3654      3653      3656      3657      3654      3653      3656      3658
      3654      3653      3656      3659      3655      3653      3656      3657
      3655      3653      3656      3658      3655      3653      3656      3659
      3656      3659      3661      3662      3656      3659      3661      3666
      3657      3656      3659      3660      3657      3656      3659      3661
      3658      3656      3659      3660      3658      3656      3659      3661
      3659      3661      3662      3663      3659      3661      3662      3664
      3659      3661      3662      3665      3659      3661      3666      3667
      3659      3661      3666      3668      3659      3661      3666      3669
      3660      3659      3661      3662      3660      3659      3661      3666
      3661      3666      3669      3670      3661      3666      3669      3671
      3662      3661      3666      3667      3662      3661      3666      3668
      3662      3661      3666      3669      3663      3662      3661      3666
      3664      3662      3661      3666      3665      3662      3661      3666
      3667      3666      3669      3670      3667      3666      3669      3671
      3668      3666      3669      3670      3668      3666      3669      3671
      3672      3678      3681      3682      3672      3678      3681      3683
      3672      3678      3681      3684      3673      3672      3674      3675
      3673      3672      3674      3676      3673      3672      3674      3677
      3673      3672      3678      3679      3673      3672      3678      3680
      3673      3672      3678      3681      3674      3672      3678      3679
      3674      3672      3678      3680      3674      3672      3678      3681
      3675      3674      3672      3678      3676      3674      3672      3678
      3677      3674      3672      3678      3678      3681      3684      3685
      3678      3681      3684      3686      3678      3681      3684      3687
      3679      3678      3681      3682      3679      3678      3681      3683
      3679      3678      3681      3684      3680      3678      3681      3682
      3680      3678      3681      3683      3680      3678      3681      3684
      3681      3684      3687      3688      3681      3684      3687      3689
      3681      3684      3687      3693      3682      3681      3684      3685
      3682      3681      3684      3686      3682      3681      3684      3687
      3683      3681      3684      3685      3683      3681      3684      3686
      3683      3681      3684      3687      3684      3687      3689      3690
      3684      3687      3689      3691      3684      3687      3689      3692
      3684      3687      3693      3694      3684      3687      3693      3695
      3684      3687      3693      3696      3685      3684      3687      3688
      3685      3684      3687      3689      3685      3684      3687      3693
      3686      3684      3687      3688      3686      3684      3687      3689
      3686      3684      3687      3693      3688      3687      3689      3690
      3688      3687      3689      3691      3688      3687      3689      3692
      3688      3687      3693      3694      3688      3687      3693      3695
      3688      3687      3693      3696      3689      3687      3693      3694
      3689      3687      3693      3695      3689      3687      3693      3696
      3690      3689      3687      3693      3691      3689      3687      3693
      3692      3689      3687      3693       533       537       539       540
       533       537       539       541       533       537       542       543
       533       537       542       544       533       537       542       548
       534       533       537       538       534       533       537       539
       534       533       537       542       535       533       537       538
       535       533       537       539       535       533       537       542
       536       533       537       538       536       533       537       539
       536       533       537       542       537       542       548       545
       538       537       539       540       538       537       539       541
       538       537       542       543       538       537       542       544
       538       537       542       548       539       537       542       543
       539       537       542       544       539       537       542       548
       540       539       537       542       541       539       537       542
       542       548       545       546       542       548       545       547
       542       548       545       549       543       542       548       545
       544       542       548       545       545       549       550       551
       545       549       550       552       545       549       550       553
       546       545       549       550       547       545       549       550
       548       545       549       550       549       550       553       554
       549       550       553       555       549       550       553       561
       550       553       555       556       550       553       561       562
       550       553       561       563       550       553       561       564
       551       550       553       554       551       550       553       555
       551       550       553       561       552       550       553       554
       552       550       553       555       552       550       553       561
       553       555       556       557       553       555       556       558
       553       561       564       565       554       553       555       556
       554       553       561       562       554       553       561       563
       554       553       561       564       555       553       561       562
       555       553       561       563       555       553       561       564
       555       556       558       559       555       556       558       560
       555       556       558       570       556       555       553       561
       556       558       570       571       556       558       570       572
       556       558       570       573       557       556       558       559
       557       556       558       560       557       556       558       570
       558       570       573       574       558       570       573       575
       558       570       573       576       559       558       570       571
       559       558       570       572       559       558       570       573
       560       558       570       571       560       558       570       572
       560       558       570       573       561       564       565       566
       561       564       565       567       562       561       564       565
       563       561       564       565       564       565       567       568
       564       565       567       569       564       565       567       617
       565       567       617       618       565       567       617       619
       565       567       617       620       566       565       567       568
       566       565       567       569       566       565       567       617
       567       617       620       621       567       617       620       622
       567       617       620       623       568       567       617       618
       568       567       617       619       568       567       617       620
       569       567       617       618       569       567       617       619
       569       567       617       620       570       573       576       577
       570       573       576       578       571       570       573       574
       571       570       573       575       571       570       573       576
       572       570       573       574       572       570       573       575
       572       570       573       576       573       576       578       579
       573       576       578       580       574       573       576       577
       574       573       576       578       575       573       576       577
       575       573       576       578       576       578       580       581
       576       578       580       582       576       578       580       583
       577       576       578       579       577       576       578       580
       578       580       583       584       578       580       583       585
       579       578       580       581       579       578       580       582
       579       578       580       583       580       583       585       586
       580       583       585       587       581       580       583       584
       581       580       583       585       582       580       583       584
       582       580       583       585       583       585       587       588
       583       585       587       589       583       585       587       590
       584       583       585       586       584       583       585       587
       585       587       590       591       585       587       590       592
       586       585       587       588       586       585       587       589
       586       585       587       590       587       590       592       593
       587       590       592       594       588       587       590       591
       588       587       590       592       589       587       590       591
       589       587       590       592       590       592       594       595
       590       592       594       596       590       592       594       597
       591       590       592       593       591       590       592       594
       592       594       597       598       592       594       597       599
       593       592       594       595       593       592       594       596
       593       592       594       597       594       597       599       600
       594       597       599       601       595       594       597       598
       595       594       597       599       596       594       597       598
       596       594       597       599       597       599       601       602
       597       599       601       603       597       599       601       604
       598       597       599       600       598       597       599       601
       599       601       604       605       599       601       604       606
       599       601       604       607       600       599       601       602
       600       599       601       603       600       599       601       604
       601       604       607       608       601       604       607       609
       601       604       607       610       602       601       604       605
       602       601       604       606       602       601       604       607
       603       601       604       605       603       601       604       606
       603       601       604       607       604       607       610       611
       604       607       610       612       604       607       610       613
       605       604       607       608       605       604       607       609
       605       604       607       610       606       604       607       608
       606       604       607       609       606       604       607       610
       607       610       613       614       607       610       613       615
       607       610       613       616       608       607       610       611
       608       607       610       612       608       607       610       613
       609       607       610       611       609       607       610       612
       609       607       610       613       611       610       613       614
       611       610       613       615       611       610       613       616
       612       610       613       614       612       610       613       615
       612       610       613       616       617       620       623       624
       617       620       623       625       617       620       623       626
       618       617       620       621       618       617       620       622
       618       617       620       623       619       617       620       621
       619       617       620       622       619       617       620       623
       620       623       626       627       620       623       626       628
       620       623       626       629       621       620       623       624
       621       620       623       625       621       620       623       626
       622       620       623       624       622       620       623       625
       622       620       623       626       623       626       629       630
       623       626       629       631       623       626       629       632
       624       623       626       627       624       623       626       628
       624       623       626       629       625       623       626       627
       625       623       626       628       625       623       626       629
       626       629       632       633       626       629       632       634
       626       629       632       635       627       626       629       630
       627       626       629       631       627       626       629       632
       628       626       629       630       628       626       629       631
       628       626       629       632       629       632       635       636
       629       632       635       637       629       632       635       638
       630       629       632       633       630       629       632       634
       630       629       632       635       631       629       632       633
       631       629       632       634       631       629       632       635
       632       635       638       639       632       635       638       640
       632       635       638       641       633       632       635       636
       633       632       635       637       633       632       635       638
       634       632       635       636       634       632       635       637
       634       632       635       638       635       638       641       642
       635       638       641       643       635       638       641       644
       636       635       638       639       636       635       638       640
       636       635       638       641       637       635       638       639
       637       635       638       640       637       635       638       641
       638       641       644       645       638       641       644       646
       638       641       644       647       639       638       641       642
       639       638       641       643       639       638       641       644
       640       638       641       642       640       638       641       643
       640       638       641       644       641       644       647       648
       641       644       647       649       641       644       647       650
       642       641       644       645       642       641       644       646
       642       641       644       647       643       641       644       645
       643       641       644       646       643       641       644       647
       644       647       650       651       644       647       650       652
       644       647       650       653       645       644       647       648
       645       644       647       649       645       644       647       650
       646       644       647       648       646       644       647       649
       646       644       647       650       647       650       653       654
       647       650       653       655       647       650       653       656
       648       647       650       651       648       647       650       652
       648       647       650       653       649       647       650       651
       649       647       650       652       649       647       650       653
       650       653       656       657       650       653       656       658
       650       653       656       659       651       650       653       654
       651       650       653       655       651       650       653       656
       652       650       653       654       652       650       653       655
       652       650       653       656       653       656       659       660
       653       656       659       661       653       656       659       662
       654       653       656       657       654       653       656       658
       654       653       656       659       655       653       656       657
       655       653       656       658       655       653       656       659
       656       659       662       663       656       659       662       664
       656       659       662       665       657       656       659       660
       657       656       659       661       657       656       659       662
       658       656       659       660       658       656       659       661
       658       656       659       662       660       659       662       663
       660       659       662       664       660       659       662       665
       661       659       662       663       661       659       662       664
       661       659       662       665     16738     16742     16745     16746
     16738     16742     16745     16747     16738     16742     16745     16751
     16739     16738     16742     16743     16739     16738     16742     16744
     16739     16738     16742     16745     16740     16738     16742     16743
     16740     16738     16742     16744     16740     16738     16742     16745
     16741     16738     16742     16743     16741     16738     16742     16744
     16741     16738     16742     16745     16742     16745     16751     16748
     16743     16742     16745     16746     16743     16742     16745     16747
     16743     16742     16745     16751     16744     16742     16745     16746
     16744     16742     16745     16747     16744     16742     16745     16751
     16745     16751     16748     16749     16745     16751     16748     16750
     16745     16751     16748     16752     16746     16745     16751     16748
     16747     16745     16751     16748     16748     16752     16753     16754
     16748     16752     16753     16755     16748     16752     16753     16756
     16749     16748     16752     16753     16750     16748     16752     16753
     16751     16748     16752     16753     16752     16753     16756     16757
     16752     16753     16756     16758     16752     16753     16756     16764
     16753     16756     16758     16759     16753     16756     16764     16765
     16753     16756     16764     16766     16753     16756     16764     16767
     16754     16753     16756     16757     16754     16753     16756     16758
     16754     16753     16756     16764     16755     16753     16756     16757
     16755     16753     16756     16758     16755     16753     16756     16764
     16756     16758     16759     16760     16756     16758     16759     16761
     16756     16764     16767     16768     16757     16756     16758     16759
     16757     16756     16764     16765     16757     16756     16764     16766
     16757     16756     16764     16767     16758     16756     16764     16765
     16758     16756     16764     16766     16758     16756     16764     16767
     16758     16759     16761     16762     16758     16759     16761     16763
     16758     16759     16761     16773     16759     16758     16756     16764
     16759     16761     16773     16774     16759     16761     16773     16775
     16759     16761     16773     16776     16760     16759     16761     16762
     16760     16759     16761     16763     16760     16759     16761     16773
     16761     16773     16776     16777     16761     16773     16776     16778
     16761     16773     16776     16779     16762     16761     16773     16774
     16762     16761     16773     16775     16762     16761     16773     16776
     16763     16761     16773     16774     16763     16761     16773     16775
     16763     16761     16773     16776     16764     16767     16768     16769
     16764     16767     16768     16770     16765     16764     16767     16768
     16766     16764     16767     16768     16767     16768     16770     16771
     16767     16768     16770     16772     16767     16768     16770     16820
     16768     16770     16820     16821     16768     16770     16820     16822
     16768     16770     16820     16823     16769     16768     16770     16771
     16769     16768     16770     16772     16769     16768     16770     16820
     16770     16820     16823     16824     16770     16820     16823     16825
     16770     16820     16823     16826     16771     16770     16820     16821
     16771     16770     16820     16822     16771     16770     16820     16823
     16772     16770     16820     16821     16772     16770     16820     16822
     16772     16770     16820     16823     16773     16776     16779     16780
     16773     16776     16779     16781     16774     16773     16776     16777
     16774     16773     16776     16778     16774     16773     16776     16779
     16775     16773     16776     16777     16775     16773     16776     16778
     16775     16773     16776     16779     16776     16779     16781     16782
     16776     16779     16781     16783     16777     16776     16779     16780
     16777     16776     16779     16781     16778     16776     16779     16780
     16778     16776     16779     16781     16779     16781     16783     16784
     16779     16781     16783     16785     16779     16781     16783     16786
     16780     16779     16781     16782     16780     16779     16781     16783
     16781     16783     16786     16787     16781     16783     16786     16788
     16782     16781     16783     16784     16782     16781     16783     16785
     16782     16781     16783     16786     16783     16786     16788     16789
     16783     16786     16788     16790     16784     16783     16786     16787
     16784     16783     16786     16788     16785     16783     16786     16787
     16785     16783     16786     16788     16786     16788     16790     16791
     16786     16788     16790     16792     16786     16788     16790     16793
     16787     16786     16788     16789     16787     16786     16788     16790
     16788     16790     16793     16794     16788     16790     16793     16795
     16789     16788     16790     16791     16789     16788     16790     16792
     16789     16788     16790     16793     16790     16793     16795     16796
     16790     16793     16795     16797     16791     16790     16793     16794
     16791     16790     16793     16795     16792     16790     16793     16794
     16792     16790     16793     16795     16793     16795     16797     16798
     16793     16795     16797     16799     16793     16795     16797     16800
     16794     16793     16795     16796     16794     16793     16795     16797
     16795     16797     16800     16801     16795     16797     16800     16802
     16796     16795     16797     16798     16796     16795     16797     16799
     16796     16795     16797     16800     16797     16800     16802     16803
     16797     16800     16802     16804     16798     16797     16800     16801
     16798     16797     16800     16802     16799     16797     16800     16801
     16799     16797     16800     16802     16800     16802     16804     16805
     16800     16802     16804     16806     16800     16802     16804     16807
     16801     16800     16802     16803     16801     16800     16802     16804
     16802     16804     16807     16808     16802     16804     16807     16809
     16802     16804     16807     16810     16803     16802     16804     16805
     16803     16802     16804     16806     16803     16802     16804     16807
     16804     16807     16810     16811     16804     16807     16810     16812
     16804     16807     16810     16813     16805     16804     16807     16808
     16805     16804     16807     16809     16805     16804     16807     16810
     16806     16804     16807     16808     16806     16804     16807     16809
     16806     16804     16807     16810     16807     16810     16813     16814
     16807     16810     16813     16815     16807     16810     16813     16816
     16808     16807     16810     16811     16808     16807     16810     16812
     16808     16807     16810     16813     16809     16807     16810     16811
     16809     16807     16810     16812     16809     16807     16810     16813
     16810     16813     16816     16817     16810     16813     16816     16818
     16810     16813     16816     16819     16811     16810     16813     16814
     16811     16810     16813     16815     16811     16810     16813     16816
     16812     16810     16813     16814     16812     16810     16813     16815
     16812     16810     16813     16816     16814     16813     16816     16817
     16814     16813     16816     16818     16814     16813     16816     16819
     16815     16813     16816     16817     16815     16813     16816     16818
     16815     16813     16816     16819     16820     16823     16826     16827
     16820     16823     16826     16828     16820     16823     16826     16829
     16821     16820     16823     16824     16821     16820     16823     16825
     16821     16820     16823     16826     16822     16820     16823     16824
     16822     16820     16823     16825     16822     16820     16823     16826
     16823     16826     16829     16830     16823     16826     16829     16831
     16823     16826     16829     16832     16824     16823     16826     16827
     16824     16823     16826     16828     16824     16823     16826     16829
     16825     16823     16826     16827     16825     16823     16826     16828
     16825     16823     16826     16829     16826     16829     16832     16833
     16826     16829     16832     16834     16826     16829     16832     16835
     16827     16826     16829     16830     16827     16826     16829     16831
     16827     16826     16829     16832     16828     16826     16829     16830
     16828     16826     16829     16831     16828     16826     16829     16832
     16829     16832     16835     16836     16829     16832     16835     16837
     16829     16832     16835     16838     16830     16829     16832     16833
     16830     16829     16832     16834     16830     16829     16832     16835
     16831     16829     16832     16833     16831     16829     16832     16834
     16831     16829     16832     16835     16832     16835     16838     16839
     16832     16835     16838     16840     16832     16835     16838     16841
     16833     16832     16835     16836     16833     16832     16835     16837
     16833     16832     16835     16838     16834     16832     16835     16836
     16834     16832     16835     16837     16834     16832     16835     16838
     16835     16838     16841     16842     16835     16838     16841     16843
     16835     16838     16841     16844     16836     16835     16838     16839
     16836     16835     16838     16840     16836     16835     16838     16841
     16837     16835     16838     16839     16837     16835     16838     16840
     16837     16835     16838     16841     16838     16841     16844     16845
     16838     16841     16844     16846     16838     16841     16844     16847
     16839     16838     16841     16842     16839     16838     16841     16843
     16839     16838     16841     16844     16840     16838     16841     16842
     16840     16838     16841     16843     16840     16838     16841     16844
     16841     16844     16847     16848     16841     16844     16847     16849
     16841     16844     16847     16850     16842     16841     16844     16845
     16842     16841     16844     16846     16842     16841     16844     16847
     16843     16841     16844     16845     16843     16841     16844     16846
     16843     16841     16844     16847     16844     16847     16850     16851
     16844     16847     16850     16852     16844     16847     16850     16853
     16845     16844     16847     16848     16845     16844     16847     16849
     16845     16844     16847     16850     16846     16844     16847     16848
     16846     16844     16847     16849     16846     16844     16847     16850
     16847     16850     16853     16854     16847     16850     16853     16855
     16847     16850     16853     16856     16848     16847     16850     16851
     16848     16847     16850     16852     16848     16847     16850     16853
     16849     16847     16850     16851     16849     16847     16850     16852
     16849     16847     16850     16853     16850     16853     16856     16857
     16850     16853     16856     16858     16850     16853     16856     16859
     16851     16850     16853     16854     16851     16850     16853     16855
     16851     16850     16853     16856     16852     16850     16853     16854
     16852     16850     16853     16855     16852     16850     16853     16856
     16853     16856     16859     16860     16853     16856     16859     16861
     16853     16856     16859     16862     16854     16853     16856     16857
     16854     16853     16856     16858     16854     16853     16856     16859
     16855     16853     16856     16857     16855     16853     16856     16858
     16855     16853     16856     16859     16856     16859     16862     16863
     16856     16859     16862     16864     16856     16859     16862     16865
     16857     16856     16859     16860     16857     16856     16859     16861
     16857     16856     16859     16862     16858     16856     16859     16860
     16858     16856     16859     16861     16858     16856     16859     16862
     16859     16862     16865     16866     16859     16862     16865     16867
     16859     16862     16865     16868     16860     16859     16862     16863
     16860     16859     16862     16864     16860     16859     16862     16865
     16861     16859     16862     16863     16861     16859     16862     16864
     16861     16859     16862     16865     16863     16862     16865     16866
     16863     16862     16865     16867     16863     16862     16865     16868
     16864     16862     16865     16866     16864     16862     16865     16867
     16864     16862     16865     16868     21145     21146     21161     21162
     21145     21146     21161     21163     21145     21146     21161     21167
     21146     21145     21149     21150     21146     21145     21149     21151
     21146     21145     21149     21152     21146     21145     21153     21154
     21146     21145     21153     21155     21146     21145     21153     21156
     21146     21145     21157     21158     21146     21145     21157     21159
     21146     21145     21157     21160     21146     21161     21167     21164
     21147     21146     21145     21149     21147     21146     21145     21153
     21147     21146     21145     21157     21147     21146     21161     21162
     21147     21146     21161     21163     21147     21146     21161     21167
     21148     21146     21145     21149     21148     21146     21145     21153
     21148     21146     21145     21157     21148     21146     21161     21162
     21148     21146     21161     21163     21148     21146     21161     21167
     21149     21145     21146     21161     21149     21145     21153     21154
     21149     21145     21153     21155     21149     21145     21153     21156
     21149     21145     21157     21158     21149     21145     21157     21159
     21149     21145     21157     21160     21150     21149     21145     21153
     21150     21149     21145     21157     21151     21149     21145     21153
     21151     21149     21145     21157     21152     21149     21145     21153
     21152     21149     21145     21157     21153     21145     21146     21161
     21153     21145     21157     21158     21153     21145     21157     21159
     21153     21145     21157     21160     21154     21153     21145     21157
     21155     21153     21145     21157     21156     21153     21145     21157
     21157     21145     21146     21161     21161     21167     21164     21165
     21161     21167     21164     21166     21161     21167     21164     21168
     21162     21161     21167     21164     21163     21161     21167     21164
     21164     21168     21169     21170     21164     21168     21169     21171
     21164     21168     21169     21172     21165     21164     21168     21169
     21166     21164     21168     21169     21167     21164     21168     21169
     21168     21169     21172     21173     21168     21169     21172     21174
     21168     21169     21172     21180     21169     21172     21174     21175
     21169     21172     21180     21181     21169     21172     21180     21182
     21169     21172     21180     21183     21170     21169     21172     21173
     21170     21169     21172     21174     21170     21169     21172     21180
     21171     21169     21172     21173     21171     21169     21172     21174
     21171     21169     21172     21180     21172     21174     21175     21176
     21172     21174     21175     21177     21172     21180     21183     21184
     21173     21172     21174     21175     21173     21172     21180     21181
     21173     21172     21180     21182     21173     21172     21180     21183
     21174     21172     21180     21181     21174     21172     21180     21182
     21174     21172     21180     21183     21174     21175     21177     21178
     21174     21175     21177     21179     21174     21175     21177     21189
     21175     21174     21172     21180     21175     21177     21189     21190
     21175     21177     21189     21191     21175     21177     21189     21192
     21176     21175     21177     21178     21176     21175     21177     21179
     21176     21175     21177     21189     21177     21189     21192     21193
     21177     21189     21192     21194     21177     21189     21192     21195
     21178     21177     21189     21190     21178     21177     21189     21191
     21178     21177     21189     21192     21179     21177     21189     21190
     21179     21177     21189     21191     21179     21177     21189     21192
     21180     21183     21184     21185     21180     21183     21184     21186
     21181     21180     21183     21184     21182     21180     21183     21184
     21183     21184     21186     21187     21183     21184     21186     21188
     21183     21184     21186     21236     21184     21186     21236     21237
     21184     21186     21236     21238     21184     21186     21236     21239
     21185     21184     21186     21187     21185     21184     21186     21188
     21185     21184     21186     21236     21186     21236     21239     21240
     21186     21236     21239     21241     21186     21236     21239     21242
     21187     21186     21236     21237     21187     21186     21236     21238
     21187     21186     21236     21239     21188     21186     21236     21237
     21188     21186     21236     21238     21188     21186     21236     21239
     21189     21192     21195     21196     21189     21192     21195     21197
     21189     21192     21195     21198     21190     21189     21192     21193
     21190     21189     21192     21194     21190     21189     21192     21195
     21191     21189     21192     21193     21191     21189     21192     21194
     21191     21189     21192     21195     21192     21195     21198     21199
     21192     21195     21198     21200     21192     21195     21198     21201
     21193     21192     21195     21196     21193     21192     21195     21197
     21193     21192     21195     21198     21194     21192     21195     21196
     21194     21192     21195     21197     21194     21192     21195     21198
     21195     21198     21201     21202     21195     21198     21201     21203
     21195     21198     21201     21204     21196     21195     21198     21199
     21196     21195     21198     21200     21196     21195     21198     21201
     21197     21195     21198     21199     21197     21195     21198     21200
     21197     21195     21198     21201     21198     21201     21204     21205
     21198     21201     21204     21206     21198     21201     21204     21207
     21199     21198     21201     21202     21199     21198     21201     21203
     21199     21198     21201     21204     21200     21198     21201     21202
     21200     21198     21201     21203     21200     21198     21201     21204
     21201     21204     21207     21208     21201     21204     21207     21209
     21202     21201     21204     21205     21202     21201     21204     21206
     21202     21201     21204     21207     21203     21201     21204     21205
     21203     21201     21204     21206     21203     21201     21204     21207
     21204     21207     21209     21210     21204     21207     21209     21211
     21205     21204     21207     21208     21205     21204     21207     21209
     21206     21204     21207     21208     21206     21204     21207     21209
     21207     21209     21211     21212     21207     21209     21211     21213
     21207     21209     21211     21214     21208     21207     21209     21210
     21208     21207     21209     21211     21209     21211     21214     21215
     21209     21211     21214     21216     21209     21211     21214     21217
     21210     21209     21211     21212     21210     21209     21211     21213
     21210     21209     21211     21214     21211     21214     21217     21218
     21211     21214     21217     21219     21211     21214     21217     21220
     21212     21211     21214     21215     21212     21211     21214     21216
     21212     21211     21214     21217     21213     21211     21214     21215
     21213     21211     21214     21216     21213     21211     21214     21217
     21214     21217     21220     21221     21214     21217     21220     21222
     21214     21217     21220     21223     21215     21214     21217     21218
     21215     21214     21217     21219     21215     21214     21217     21220
     21216     21214     21217     21218     21216     21214     21217     21219
     21216     21214     21217     21220     21217     21220     21223     21224
     21217     21220     21223     21225     21217     21220     21223     21226
     21218     21217     21220     21221     21218     21217     21220     21222
     21218     21217     21220     21223     21219     21217     21220     21221
     21219     21217     21220     21222     21219     21217     21220     21223
     21220     21223     21226     21227     21220     21223     21226     21228
     21220     21223     21226     21229     21221     21220     21223     21224
     21221     21220     21223     21225     21221     21220     21223     21226
     21222     21220     21223     21224     21222     21220     21223     21225
     21222     21220     21223     21226     21223     21226     21229     21230
     21223     21226     21229     21231     21223     21226     21229     21232
     21224     21223     21226     21227     21224     21223     21226     21228
     21224     21223     21226     21229     21225     21223     21226     21227
     21225     21223     21226     21228     21225     21223     21226     21229
     21226     21229     21232     21233     21226     21229     21232     21234
     21226     21229     21232     21235     21227     21226     21229     21230
     21227     21226     21229     21231     21227     21226     21229     21232
     21228     21226     21229     21230     21228     21226     21229     21231
     21228     21226     21229     21232     21230     21229     21232     21233
     21230     21229     21232     21234     21230     21229     21232     21235
     21231     21229     21232     21233     21231     21229     21232     21234
     21231     21229     21232     21235     21236     21239     21242     21243
     21236     21239     21242     21244     21236     21239     21242     21245
     21237     21236     21239     21240     21237     21236     21239     21241
     21237     21236     21239     21242     21238     21236     21239     21240
     21238     21236     21239     21241     21238     21236     21239     21242
     21239     21242     21245     21246     21239     21242     21245     21247
     21239     21242     21245     21248     21240     21239     21242     21243
     21240     21239     21242     21244     21240     21239     21242     21245
     21241     21239     21242     21243     21241     21239     21242     21244
     21241     21239     21242     21245     21242     21245     21248     21249
     21242     21245     21248     21250     21242     21245     21248     21251
     21243     21242     21245     21246     21243     21242     21245     21247
     21243     21242     21245     21248     21244     21242     21245     21246
     21244     21242     21245     21247     21244     21242     21245     21248
     21245     21248     21251     21252     21245     21248     21251     21253
     21245     21248     21251     21254     21246     21245     21248     21249
     21246     21245     21248     21250     21246     21245     21248     21251
     21247     21245     21248     21249     21247     21245     21248     21250
     21247     21245     21248     21251     21248     21251     21254     21255
     21248     21251     21254     21256     21248     21251     21254     21257
     21249     21248     21251     21252     21249     21248     21251     21253
     21249     21248     21251     21254     21250     21248     21251     21252
     21250     21248     21251     21253     21250     21248     21251     21254
     21251     21254     21257     21258     21251     21254     21257     21259
     21251     21254     21257     21260     21252     21251     21254     21255
     21252     21251     21254     21256     21252     21251     21254     21257
     21253     21251     21254     21255     21253     21251     21254     21256
     21253     21251     21254     21257     21254     21257     21260     21261
     21254     21257     21260     21262     21254     21257     21260     21263
     21255     21254     21257     21258     21255     21254     21257     21259
     21255     21254     21257     21260     21256     21254     21257     21258
     21256     21254     21257     21259     21256     21254     21257     21260
     21257     21260     21263     21264     21257     21260     21263     21265
     21257     21260     21263     21266     21258     21257     21260     21261
     21258     21257     21260     21262     21258     21257     21260     21263
     21259     21257     21260     21261     21259     21257     21260     21262
     21259     21257     21260     21263     21260     21263     21266     21267
     21260     21263     21266     21268     21260     21263     21266     21269
     21261     21260     21263     21264     21261     21260     21263     21265
     21261     21260     21263     21266     21262     21260     21263     21264
     21262     21260     21263     21265     21262     21260     21263     21266
     21263     21266     21269     21270     21263     21266     21269     21271
     21263     21266     21269     21272     21264     21263     21266     21267
     21264     21263     21266     21268     21264     21263     21266     21269
     21265     21263     21266     21267     21265     21263     21266     21268
     21265     21263     21266     21269     21266     21269     21272     21273
     21266     21269     21272     21274     21266     21269     21272     21275
     21267     21266     21269     21270     21267     21266     21269     21271
     21267     21266     21269     21272     21268     21266     21269     21270
     21268     21266     21269     21271     21268     21266     21269     21272
     21269     21272     21275     21276     21269     21272     21275     21277
     21269     21272     21275     21278     21270     21269     21272     21273
     21270     21269     21272     21274     21270     21269     21272     21275
     21271     21269     21272     21273     21271     21269     21272     21274
     21271     21269     21272     21275     21273     21272     21275     21276
     21273     21272     21275     21277     21273     21272     21275     21278
     21274     21272     21275     21276     21274     21272     21275     21277
     21274     21272     21275     21278      3697      3701      3704      3705
      3697      3701      3704      3735      3697      3743      3740      3735
      3697      3743      3740      3741      3697      3743      3740      3742
      3698      3697      3699      3700      3698      3697      3701      3702
      3698      3697      3701      3703      3698      3697      3701      3704
      3698      3697      3743      3740      3698      3697      3743      3744
      3698      3697      3743      3745      3699      3697      3701      3702
      3699      3697      3701      3703      3699      3697      3701      3704
      3699      3697      3743      3740      3699      3697      3743      3744
      3699      3697      3743      3745      3700      3699      3697      3701
      3700      3699      3697      3743      3701      3697      3743      3740
      3701      3697      3743      3744      3701      3697      3743      3745
      3701      3704      3705      3706      3701      3704      3705      3707
      3701      3704      3735      3733      3701      3704      3735      3736
      3701      3704      3735      3740      3702      3701      3697      3743
      3702      3701      3704      3705      3702      3701      3704      3735
      3703      3701      3697      3743      3703      3701      3704      3705
      3703      3701      3704      3735      3704      3701      3697      3743
      3704      3705      3707      3708      3704      3705      3707      3709
      3704      3705      3707      3710      3704      3735      3733      3710
      3704      3735      3733      3730      3704      3735      3733      3734
      3704      3735      3736      3737      3704      3735      3736      3738
      3704      3735      3736      3739      3704      3735      3740      3741
      3704      3735      3740      3742      3704      3735      3740      3743
      3705      3704      3735      3733      3705      3704      3735      3736
      3705      3704      3735      3740      3705      3707      3710      3711
      3705      3707      3710      3712      3705      3707      3710      3733
      3706      3705      3704      3735      3706      3705      3707      3708
      3706      3705      3707      3709      3706      3705      3707      3710
      3707      3705      3704      3735      3707      3710      3712      3713
      3707      3710      3712      3714      3707      3710      3712      3722
      3707      3710      3733      3730      3707      3710      3733      3734
      3707      3710      3733      3735      3708      3707      3710      3711
      3708      3707      3710      3712      3708      3707      3710      3733
      3709      3707      3710      3711      3709      3707      3710      3712
      3709      3707      3710      3733      3710      3712      3714      3715
      3710      3712      3714      3716      3710      3712      3714      3717
      3710      3712      3722      3720      3710      3712      3722      3723
      3710      3712      3722      3727      3710      3733      3730      3727
      3710      3733      3730      3731      3710      3733      3730      3732
      3710      3733      3735      3736      3710      3733      3735      3740
      3711      3710      3712      3713      3711      3710      3712      3714
      3711      3710      3712      3722      3711      3710      3733      3730
      3711      3710      3733      3734      3711      3710      3733      3735
      3712      3710      3733      3730      3712      3710      3733      3734
      3712      3710      3733      3735      3712      3714      3717      3718
      3712      3714      3717      3719      3712      3714      3717      3720
      3712      3722      3720      3717      3712      3722      3720      3721
      3712      3722      3720      3746      3712      3722      3723      3724
      3712      3722      3723      3725      3712      3722      3723      3726
      3712      3722      3727      3728      3712      3722      3727      3729
      3712      3722      3727      3730      3713      3712      3710      3733
      3713      3712      3714      3715      3713      3712      3714      3716
      3713      3712      3714      3717      3713      3712      3722      3720
      3713      3712      3722      3723      3713      3712      3722      3727
      3714      3712      3710      3733      3714      3712      3722      3720
      3714      3712      3722      3723      3714      3712      3722      3727
      3714      3717      3720      3721      3714      3717      3720      3722
      3714      3717      3720      3746      3715      3714      3712      3722
      3715      3714      3717      3718      3715      3714      3717      3719
      3715      3714      3717      3720      3716      3714      3712      3722
      3716      3714      3717      3718      3716      3714      3717      3719
      3716      3714      3717      3720      3717      3714      3712      3722
      3717      3720      3722      3723      3717      3720      3722      3727
      3717      3720      3746      3747      3717      3720      3746      3748
      3717      3720      3746      3752      3718      3717      3720      3721
      3718      3717      3720      3722      3718      3717      3720      3746
      3719      3717      3720      3721      3719      3717      3720      3722
      3719      3717      3720      3746      3720      3722      3723      3724
      3720      3722      3723      3725      3720      3722      3723      3726
      3720      3722      3727      3728      3720      3722      3727      3729
      3720      3722      3727      3730      3720      3746      3748      3749
      3720      3746      3748      3750      3720      3746      3748      3751
      3720      3746      3752      3753      3720      3746      3752      3754
      3720      3746      3752      3755      3721      3720      3722      3723
      3721      3720      3722      3727      3721      3720      3746      3747
      3721      3720      3746      3748      3721      3720      3746      3752
      3722      3712      3710      3733      3722      3720      3746      3747
      3722      3720      3746      3748      3722      3720      3746      3752
      3722      3727      3730      3731      3722      3727      3730      3732
      3722      3727      3730      3733      3723      3722      3720      3746
      3723      3722      3727      3728      3723      3722      3727      3729
      3723      3722      3727      3730      3724      3723      3722      3727
      3725      3723      3722      3727      3726      3723      3722      3727
      3727      3722      3720      3746      3727      3730      3733      3734
      3727      3730      3733      3735      3728      3727      3730      3731
      3728      3727      3730      3732      3728      3727      3730      3733
      3729      3727      3730      3731      3729      3727      3730      3732
      3729      3727      3730      3733      3730      3733      3735      3736
      3730      3733      3735      3740      3731      3730      3733      3734
      3731      3730      3733      3735      3732      3730      3733      3734
      3732      3730      3733      3735      3733      3735      3736      3737
      3733      3735      3736      3738      3733      3735      3736      3739
      3733      3735      3740      3741      3733      3735      3740      3742
      3733      3735      3740      3743      3734      3733      3735      3736
      3734      3733      3735      3740      3735      3740      3743      3744
      3735      3740      3743      3745      3736      3735      3740      3741
      3736      3735      3740      3742      3736      3735      3740      3743
      3737      3736      3735      3740      3738      3736      3735      3740
      3739      3736      3735      3740      3741      3740      3743      3744
      3741      3740      3743      3745      3742      3740      3743      3744
      3742      3740      3743      3745      3746      3752      3755      3756
      3746      3752      3755      3757      3746      3752      3755      3758
      3747      3746      3748      3749      3747      3746      3748      3750
      3747      3746      3748      3751      3747      3746      3752      3753
      3747      3746      3752      3754      3747      3746      3752      3755
      3748      3746      3752      3753      3748      3746      3752      3754
      3748      3746      3752      3755      3749      3748      3746      3752
      3750      3748      3746      3752      3751      3748      3746      3752
      3752      3755      3758      3759      3752      3755      3758      3760
      3752      3755      3758      3761      3753      3752      3755      3756
      3753      3752      3755      3757      3753      3752      3755      3758
      3754      3752      3755      3756      3754      3752      3755      3757
      3754      3752      3755      3758      3755      3758      3761      3762
      3755      3758      3761      3763      3755      3758      3761      3767
      3756      3755      3758      3759      3756      3755      3758      3760
      3756      3755      3758      3761      3757      3755      3758      3759
      3757      3755      3758      3760      3757      3755      3758      3761
      3758      3761      3763      3764      3758      3761      3763      3765
      3758      3761      3763      3766      3758      3761      3767      3768
      3758      3761      3767      3769      3758      3761      3767      3770
      3759      3758      3761      3762      3759      3758      3761      3763
      3759      3758      3761      3767      3760      3758      3761      3762
      3760      3758      3761      3763      3760      3758      3761      3767
      3762      3761      3763      3764      3762      3761      3763      3765
      3762      3761      3763      3766      3762      3761      3767      3768
      3762      3761      3767      3769      3762      3761      3767      3770
      3763      3761      3767      3768      3763      3761      3767      3769
      3763      3761      3767      3770      3764      3763      3761      3767
      3765      3763      3761      3767      3766      3763      3761      3767
     10712     10725     10728     10729     10712     10725     10728     10730
     10712     10725     10728     10735     10713     10712     10717     10718
     10713     10712     10717     10719     10713     10712     10717     10720
     10713     10712     10721     10722     10713     10712     10721     10723
     10713     10712     10721     10724     10713     10712     10725     10726
     10713     10712     10725     10727     10713     10712     10725     10728
     10714     10713     10712     10717     10714     10713     10712     10721
     10714     10713     10712     10725     10715     10713     10712     10717
     10715     10713     10712     10721     10715     10713     10712     10725
     10716     10713     10712     10717     10716     10713     10712     10721
     10716     10713     10712     10725     10717     10712     10721     10722
     10717     10712     10721     10723     10717     10712     10721     10724
     10717     10712     10725     10726     10717     10712     10725     10727
     10717     10712     10725     10728     10718     10717     10712     10721
     10718     10717     10712     10725     10719     10717     10712     10721
     10719     10717     10712     10725     10720     10717     10712     10721
     10720     10717     10712     10725     10721     10712     10725     10726
     10721     10712     10725     10727     10721     10712     10725     10728
     10722     10721     10712     10725     10723     10721     10712     10725
     10724     10721     10712     10725     10725     10728     10735     10731
     10726     10725     10728     10729     10726     10725     10728     10730
     10726     10725     10728     10735     10727     10725     10728     10729
     10727     10725     10728     10730     10727     10725     10728     10735
     10728     10735     10731     10732     10728     10735     10731     10733
     10728     10735     10731     10734     10729     10728     10735     10731
     10730     10728     10735     10731     10731     10734     10736     10737
     10731     10734     10736     10738     10731     10734     10736     10741
     10732     10731     10734     10736     10733     10731     10734     10736
     10734     10736     10741     10739     10734     10736     10741     10742
     10734     10736     10741     10743     10735     10731     10734     10736
     10736     10741     10739     10740     10736     10741     10739     10791
     10736     10741     10743     10744     10736     10741     10743     10745
     10736     10741     10743     10747     10737     10736     10741     10739
     10737     10736     10741     10742     10737     10736     10741     10743
     10738     10736     10741     10739     10738     10736     10741     10742
     10738     10736     10741     10743     10739     10741     10743     10744
     10739     10741     10743     10745     10739     10741     10743     10747
     10739     10791     10793     10794     10739     10791     10793     10795
     10739     10791     10793     10796     10740     10739     10741     10742
     10740     10739     10741     10743     10740     10739     10791     10792
     10740     10739     10791     10793     10741     10739     10791     10792
     10741     10739     10791     10793     10741     10743     10745     10746
     10741     10743     10747     10748     10741     10743     10747     10749
     10742     10741     10739     10791     10742     10741     10743     10744
     10742     10741     10743     10745     10742     10741     10743     10747
     10743     10741     10739     10791     10743     10747     10749     10750
     10743     10747     10749     10751     10744     10743     10745     10746
     10744     10743     10747     10748     10744     10743     10747     10749
     10745     10743     10747     10748     10745     10743     10747     10749
     10746     10745     10743     10747     10747     10749     10751     10752
     10747     10749     10751     10753     10747     10749     10751     10754
     10748     10747     10749     10750     10748     10747     10749     10751
     10749     10751     10754     10755     10749     10751     10754     10756
     10749     10751     10754     10757     10750     10749     10751     10752
     10750     10749     10751     10753     10750     10749     10751     10754
     10751     10754     10757     10758     10751     10754     10757     10759
     10751     10754     10757     10760     10752     10751     10754     10755
     10752     10751     10754     10756     10752     10751     10754     10757
     10753     10751     10754     10755     10753     10751     10754     10756
     10753     10751     10754     10757     10754     10757     10760     10761
     10754     10757     10760     10762     10754     10757     10760     10763
     10755     10754     10757     10758     10755     10754     10757     10759
     10755     10754     10757     10760     10756     10754     10757     10758
     10756     10754     10757     10759     10756     10754     10757     10760
     10757     10760     10763     10764     10757     10760     10763     10765
     10757     10760     10763     10766     10758     10757     10760     10761
     10758     10757     10760     10762     10758     10757     10760     10763
     10759     10757     10760     10761     10759     10757     10760     10762
     10759     10757     10760     10763     10760     10763     10766     10767
     10760     10763     10766     10768     10760     10763     10766     10769
     10761     10760     10763     10764     10761     10760     10763     10765
     10761     10760     10763     10766     10762     10760     10763     10764
     10762     10760     10763     10765     10762     10760     10763     10766
     10763     10766     10769     10770     10763     10766     10769     10771
     10763     10766     10769     10772     10764     10763     10766     10767
     10764     10763     10766     10768     10764     10763     10766     10769
     10765     10763     10766     10767     10765     10763     10766     10768
     10765     10763     10766     10769     10766     10769     10772     10773
     10766     10769     10772     10774     10766     10769     10772     10775
     10767     10766     10769     10770     10767     10766     10769     10771
     10767     10766     10769     10772     10768     10766     10769     10770
     10768     10766     10769     10771     10768     10766     10769     10772
     10769     10772     10775     10776     10769     10772     10775     10777
     10769     10772     10775     10778     10770     10769     10772     10773
     10770     10769     10772     10774     10770     10769     10772     10775
     10771     10769     10772     10773     10771     10769     10772     10774
     10771     10769     10772     10775     10772     10775     10778     10779
     10772     10775     10778     10780     10772     10775     10778     10781
     10773     10772     10775     10776     10773     10772     10775     10777
     10773     10772     10775     10778     10774     10772     10775     10776
     10774     10772     10775     10777     10774     10772     10775     10778
     10775     10778     10781     10782     10775     10778     10781     10783
     10775     10778     10781     10784     10776     10775     10778     10779
     10776     10775     10778     10780     10776     10775     10778     10781
     10777     10775     10778     10779     10777     10775     10778     10780
     10777     10775     10778     10781     10778     10781     10784     10785
     10778     10781     10784     10786     10778     10781     10784     10787
     10779     10778     10781     10782     10779     10778     10781     10783
     10779     10778     10781     10784     10780     10778     10781     10782
     10780     10778     10781     10783     10780     10778     10781     10784
     10781     10784     10787     10788     10781     10784     10787     10789
     10781     10784     10787     10790     10782     10781     10784     10785
     10782     10781     10784     10786     10782     10781     10784     10787
     10783     10781     10784     10785     10783     10781     10784     10786
     10783     10781     10784     10787     10785     10784     10787     10788
     10785     10784     10787     10789     10785     10784     10787     10790
     10786     10784     10787     10788     10786     10784     10787     10789
     10786     10784     10787     10790     10791     10793     10796     10797
     10791     10793     10796     10798     10791     10793     10796     10799
     10792     10791     10793     10794     10792     10791     10793     10795
     10792     10791     10793     10796     10793     10796     10799     10800
     10793     10796     10799     10801     10793     10796     10799     10802
     10794     10793     10796     10797     10794     10793     10796     10798
     10794     10793     10796     10799     10795     10793     10796     10797
     10795     10793     10796     10798     10795     10793     10796     10799
     10796     10799     10802     10803     10796     10799     10802     10804
     10796     10799     10802     10805     10797     10796     10799     10800
     10797     10796     10799     10801     10797     10796     10799     10802
     10798     10796     10799     10800     10798     10796     10799     10801
     10798     10796     10799     10802     10799     10802     10805     10806
     10799     10802     10805     10807     10799     10802     10805     10808
     10800     10799     10802     10803     10800     10799     10802     10804
     10800     10799     10802     10805     10801     10799     10802     10803
     10801     10799     10802     10804     10801     10799     10802     10805
     10802     10805     10808     10809     10802     10805     10808     10810
     10802     10805     10808     10811     10803     10802     10805     10806
     10803     10802     10805     10807     10803     10802     10805     10808
     10804     10802     10805     10806     10804     10802     10805     10807
     10804     10802     10805     10808     10805     10808     10811     10812
     10805     10808     10811     10813     10805     10808     10811     10814
     10806     10805     10808     10809     10806     10805     10808     10810
     10806     10805     10808     10811     10807     10805     10808     10809
     10807     10805     10808     10810     10807     10805     10808     10811
     10808     10811     10814     10815     10808     10811     10814     10816
     10809     10808     10811     10812     10809     10808     10811     10813
     10809     10808     10811     10814     10810     10808     10811     10812
     10810     10808     10811     10813     10810     10808     10811     10814
     10811     10814     10816     10817     10811     10814     10816     10818
     10812     10811     10814     10815     10812     10811     10814     10816
     10813     10811     10814     10815     10813     10811     10814     10816
     10814     10816     10818     10819     10814     10816     10818     10820
     10814     10816     10818     10821     10815     10814     10816     10817
     10815     10814     10816     10818     10816     10818     10821     10822
     10816     10818     10821     10823     10816     10818     10821     10824
     10817     10816     10818     10819     10817     10816     10818     10820
     10817     10816     10818     10821     10818     10821     10824     10825
     10818     10821     10824     10826     10818     10821     10824     10827
     10819     10818     10821     10822     10819     10818     10821     10823
     10819     10818     10821     10824     10820     10818     10821     10822
     10820     10818     10821     10823     10820     10818     10821     10824
     10821     10824     10827     10828     10821     10824     10827     10829
     10821     10824     10827     10830     10822     10821     10824     10825
     10822     10821     10824     10826     10822     10821     10824     10827
     10823     10821     10824     10825     10823     10821     10824     10826
     10823     10821     10824     10827     10824     10827     10830     10831
     10824     10827     10830     10832     10824     10827     10830     10833
     10825     10824     10827     10828     10825     10824     10827     10829
     10825     10824     10827     10830     10826     10824     10827     10828
     10826     10824     10827     10829     10826     10824     10827     10830
     10827     10830     10833     10834     10827     10830     10833     10835
     10827     10830     10833     10836     10828     10827     10830     10831
     10828     10827     10830     10832     10828     10827     10830     10833
     10829     10827     10830     10831     10829     10827     10830     10832
     10829     10827     10830     10833     10830     10833     10836     10837
     10830     10833     10836     10838     10830     10833     10836     10839
     10831     10830     10833     10834     10831     10830     10833     10835
     10831     10830     10833     10836     10832     10830     10833     10834
     10832     10830     10833     10835     10832     10830     10833     10836
     10833     10836     10839     10840     10833     10836     10839     10841
     10833     10836     10839     10842     10834     10833     10836     10837
     10834     10833     10836     10838     10834     10833     10836     10839
     10835     10833     10836     10837     10835     10833     10836     10838
     10835     10833     10836     10839     10837     10836     10839     10840
     10837     10836     10839     10841     10837     10836     10839     10842
     10838     10836     10839     10840     10838     10836     10839     10841
     10838     10836     10839     10842     10843     10856     10859     10860
     10843     10856     10859     10861     10843     10856     10859     10866
     10844     10843     10848     10849     10844     10843     10848     10850
     10844     10843     10848     10851     10844     10843     10852     10853
     10844     10843     10852     10854     10844     10843     10852     10855
     10844     10843     10856     10857     10844     10843     10856     10858
     10844     10843     10856     10859     10845     10844     10843     10848
     10845     10844     10843     10852     10845     10844     10843     10856
     10846     10844     10843     10848     10846     10844     10843     10852
     10846     10844     10843     10856     10847     10844     10843     10848
     10847     10844     10843     10852     10847     10844     10843     10856
     10848     10843     10852     10853     10848     10843     10852     10854
     10848     10843     10852     10855     10848     10843     10856     10857
     10848     10843     10856     10858     10848     10843     10856     10859
     10849     10848     10843     10852     10849     10848     10843     10856
     10850     10848     10843     10852     10850     10848     10843     10856
     10851     10848     10843     10852     10851     10848     10843     10856
     10852     10843     10856     10857     10852     10843     10856     10858
     10852     10843     10856     10859     10853     10852     10843     10856
     10854     10852     10843     10856     10855     10852     10843     10856
     10856     10859     10866     10862     10857     10856     10859     10860
     10857     10856     10859     10861     10857     10856     10859     10866
     10858     10856     10859     10860     10858     10856     10859     10861
     10858     10856     10859     10866     10859     10866     10862     10863
     10859     10866     10862     10864     10859     10866     10862     10865
     10860     10859     10866     10862     10861     10859     10866     10862
     10862     10865     10867     10868     10862     10865     10867     10869
     10862     10865     10867     10872     10863     10862     10865     10867
     10864     10862     10865     10867     10865     10867     10872     10870
     10865     10867     10872     10873     10865     10867     10872     10874
     10866     10862     10865     10867     10867     10872     10870     10871
     10867     10872     10870     10922     10867     10872     10874     10875
     10867     10872     10874     10876     10867     10872     10874     10878
     10868     10867     10872     10870     10868     10867     10872     10873
     10868     10867     10872     10874     10869     10867     10872     10870
     10869     10867     10872     10873     10869     10867     10872     10874
     10870     10872     10874     10875     10870     10872     10874     10876
     10870     10872     10874     10878     10870     10922     10924     10925
     10870     10922     10924     10926     10870     10922     10924     10927
     10871     10870     10872     10873     10871     10870     10872     10874
     10871     10870     10922     10923     10871     10870     10922     10924
     10872     10870     10922     10923     10872     10870     10922     10924
     10872     10874     10876     10877     10872     10874     10878     10879
     10872     10874     10878     10880     10873     10872     10870     10922
     10873     10872     10874     10875     10873     10872     10874     10876
     10873     10872     10874     10878     10874     10872     10870     10922
     10874     10878     10880     10881     10874     10878     10880     10882
     10875     10874     10876     10877     10875     10874     10878     10879
     10875     10874     10878     10880     10876     10874     10878     10879
     10876     10874     10878     10880     10877     10876     10874     10878
     10878     10880     10882     10883     10878     10880     10882     10884
     10878     10880     10882     10885     10879     10878     10880     10881
     10879     10878     10880     10882     10880     10882     10885     10886
     10880     10882     10885     10887     10880     10882     10885     10888
     10881     10880     10882     10883     10881     10880     10882     10884
     10881     10880     10882     10885     10882     10885     10888     10889
     10882     10885     10888     10890     10882     10885     10888     10891
     10883     10882     10885     10886     10883     10882     10885     10887
     10883     10882     10885     10888     10884     10882     10885     10886
     10884     10882     10885     10887     10884     10882     10885     10888
     10885     10888     10891     10892     10885     10888     10891     10893
     10885     10888     10891     10894     10886     10885     10888     10889
     10886     10885     10888     10890     10886     10885     10888     10891
     10887     10885     10888     10889     10887     10885     10888     10890
     10887     10885     10888     10891     10888     10891     10894     10895
     10888     10891     10894     10896     10888     10891     10894     10897
     10889     10888     10891     10892     10889     10888     10891     10893
     10889     10888     10891     10894     10890     10888     10891     10892
     10890     10888     10891     10893     10890     10888     10891     10894
     10891     10894     10897     10898     10891     10894     10897     10899
     10891     10894     10897     10900     10892     10891     10894     10895
     10892     10891     10894     10896     10892     10891     10894     10897
     10893     10891     10894     10895     10893     10891     10894     10896
     10893     10891     10894     10897     10894     10897     10900     10901
     10894     10897     10900     10902     10894     10897     10900     10903
     10895     10894     10897     10898     10895     10894     10897     10899
     10895     10894     10897     10900     10896     10894     10897     10898
     10896     10894     10897     10899     10896     10894     10897     10900
     10897     10900     10903     10904     10897     10900     10903     10905
     10897     10900     10903     10906     10898     10897     10900     10901
     10898     10897     10900     10902     10898     10897     10900     10903
     10899     10897     10900     10901     10899     10897     10900     10902
     10899     10897     10900     10903     10900     10903     10906     10907
     10900     10903     10906     10908     10900     10903     10906     10909
     10901     10900     10903     10904     10901     10900     10903     10905
     10901     10900     10903     10906     10902     10900     10903     10904
     10902     10900     10903     10905     10902     10900     10903     10906
     10903     10906     10909     10910     10903     10906     10909     10911
     10903     10906     10909     10912     10904     10903     10906     10907
     10904     10903     10906     10908     10904     10903     10906     10909
     10905     10903     10906     10907     10905     10903     10906     10908
     10905     10903     10906     10909     10906     10909     10912     10913
     10906     10909     10912     10914     10906     10909     10912     10915
     10907     10906     10909     10910     10907     10906     10909     10911
     10907     10906     10909     10912     10908     10906     10909     10910
     10908     10906     10909     10911     10908     10906     10909     10912
     10909     10912     10915     10916     10909     10912     10915     10917
     10909     10912     10915     10918     10910     10909     10912     10913
     10910     10909     10912     10914     10910     10909     10912     10915
     10911     10909     10912     10913     10911     10909     10912     10914
     10911     10909     10912     10915     10912     10915     10918     10919
     10912     10915     10918     10920     10912     10915     10918     10921
     10913     10912     10915     10916     10913     10912     10915     10917
     10913     10912     10915     10918     10914     10912     10915     10916
     10914     10912     10915     10917     10914     10912     10915     10918
     10916     10915     10918     10919     10916     10915     10918     10920
     10916     10915     10918     10921     10917     10915     10918     10919
     10917     10915     10918     10920     10917     10915     10918     10921
     10922     10924     10927     10928     10922     10924     10927     10929
     10922     10924     10927     10930     10923     10922     10924     10925
     10923     10922     10924     10926     10923     10922     10924     10927
     10924     10927     10930     10931     10924     10927     10930     10932
     10924     10927     10930     10933     10925     10924     10927     10928
     10925     10924     10927     10929     10925     10924     10927     10930
     10926     10924     10927     10928     10926     10924     10927     10929
     10926     10924     10927     10930     10927     10930     10933     10934
     10927     10930     10933     10935     10927     10930     10933     10936
     10928     10927     10930     10931     10928     10927     10930     10932
     10928     10927     10930     10933     10929     10927     10930     10931
     10929     10927     10930     10932     10929     10927     10930     10933
     10930     10933     10936     10937     10930     10933     10936     10938
     10930     10933     10936     10939     10931     10930     10933     10934
     10931     10930     10933     10935     10931     10930     10933     10936
     10932     10930     10933     10934     10932     10930     10933     10935
     10932     10930     10933     10936     10933     10936     10939     10940
     10933     10936     10939     10941     10933     10936     10939     10942
     10934     10933     10936     10937     10934     10933     10936     10938
     10934     10933     10936     10939     10935     10933     10936     10937
     10935     10933     10936     10938     10935     10933     10936     10939
     10936     10939     10942     10943     10936     10939     10942     10944
     10936     10939     10942     10945     10937     10936     10939     10940
     10937     10936     10939     10941     10937     10936     10939     10942
     10938     10936     10939     10940     10938     10936     10939     10941
     10938     10936     10939     10942     10939     10942     10945     10946
     10939     10942     10945     10947     10940     10939     10942     10943
     10940     10939     10942     10944     10940     10939     10942     10945
     10941     10939     10942     10943     10941     10939     10942     10944
     10941     10939     10942     10945     10942     10945     10947     10948
     10942     10945     10947     10949     10943     10942     10945     10946
     10943     10942     10945     10947     10944     10942     10945     10946
     10944     10942     10945     10947     10945     10947     10949     10950
     10945     10947     10949     10951     10945     10947     10949     10952
     10946     10945     10947     10948     10946     10945     10947     10949
     10947     10949     10952     10953     10947     10949     10952     10954
     10947     10949     10952     10955     10948     10947     10949     10950
     10948     10947     10949     10951     10948     10947     10949     10952
     10949     10952     10955     10956     10949     10952     10955     10957
     10949     10952     10955     10958     10950     10949     10952     10953
     10950     10949     10952     10954     10950     10949     10952     10955
     10951     10949     10952     10953     10951     10949     10952     10954
     10951     10949     10952     10955     10952     10955     10958     10959
     10952     10955     10958     10960     10952     10955     10958     10961
     10953     10952     10955     10956     10953     10952     10955     10957
     10953     10952     10955     10958     10954     10952     10955     10956
     10954     10952     10955     10957     10954     10952     10955     10958
     10955     10958     10961     10962     10955     10958     10961     10963
     10955     10958     10961     10964     10956     10955     10958     10959
     10956     10955     10958     10960     10956     10955     10958     10961
     10957     10955     10958     10959     10957     10955     10958     10960
     10957     10955     10958     10961     10958     10961     10964     10965
     10958     10961     10964     10966     10958     10961     10964     10967
     10959     10958     10961     10962     10959     10958     10961     10963
     10959     10958     10961     10964     10960     10958     10961     10962
     10960     10958     10961     10963     10960     10958     10961     10964
     10961     10964     10967     10968     10961     10964     10967     10969
     10961     10964     10967     10970     10962     10961     10964     10965
     10962     10961     10964     10966     10962     10961     10964     10967
     10963     10961     10964     10965     10963     10961     10964     10966
     10963     10961     10964     10967     10964     10967     10970     10971
     10964     10967     10970     10972     10964     10967     10970     10973
     10965     10964     10967     10968     10965     10964     10967     10969
     10965     10964     10967     10970     10966     10964     10967     10968
     10966     10964     10967     10969     10966     10964     10967     10970
     10968     10967     10970     10971     10968     10967     10970     10972
     10968     10967     10970     10973     10969     10967     10970     10971
     10969     10967     10970     10972     10969     10967     10970     10973
       666       670       672       673       666       670       672       674
       666       670       675       676       666       670       675       677
       666       670       675       681       667       666       670       671
       667       666       670       672       667       666       670       675
       668       666       670       671       668       666       670       672
       668       666       670       675       669       666       670       671
       669       666       670       672       669       666       670       675
       670       675       681       678       671       670       672       673
       671       670       672       674       671       670       675       676
       671       670       675       677       671       670       675       681
       672       670       675       676       672       670       675       677
       672       670       675       681       673       672       670       675
       674       672       670       675       675       681       678       679
       675       681       678       680       675       681       678       682
       676       675       681       678       677       675       681       678
       678       682       683       684       678       682       683       685
       678       682       683       686       679       678       682       683
       680       678       682       683       681       678       682       683
       682       683       686       687       682       683       686       688
       682       683       686       694       683       686       688       689
       683       686       694       695       683       686       694       696
       683       686       694       697       684       683       686       687
       684       683       686       688       684       683       686       694
       685       683       686       687       685       683       686       688
       685       683       686       694       686       688       689       690
       686       688       689       691       686       694       697       698
       687       686       688       689       687       686       694       695
       687       686       694       696       687       686       694       697
       688       686       694       695       688       686       694       696
       688       686       694       697       688       689       691       692
       688       689       691       693       688       689       691       703
       689       688       686       694       689       691       703       704
       689       691       703       705       689       691       703       706
       690       689       691       692       690       689       691       693
       690       689       691       703       691       703       706       707
       691       703       706       708       691       703       706       709
       692       691       703       704       692       691       703       705
       692       691       703       706       693       691       703       704
       693       691       703       705       693       691       703       706
       694       697       698       699       694       697       698       700
       695       694       697       698       696       694       697       698
       697       698       700       701       697       698       700       702
       697       698       700       750       698       700       750       751
       698       700       750       752       698       700       750       753
       699       698       700       701       699       698       700       702
       699       698       700       750       700       750       753       754
       700       750       753       755       700       750       753       756
       701       700       750       751       701       700       750       752
       701       700       750       753       702       700       750       751
       702       700       750       752       702       700       750       753
       703       706       709       710       703       706       709       711
       704       703       706       707       704       703       706       708
       704       703       706       709       705       703       706       707
       705       703       706       708       705       703       706       709
       706       709       711       712       706       709       711       713
       707       706       709       710       707       706       709       711
       708       706       709       710       708       706       709       711
       709       711       713       714       709       711       713       715
       709       711       713       716       710       709       711       712
       710       709       711       713       711       713       716       717
       711       713       716       718       712       711       713       714
       712       711       713       715       712       711       713       716
       713       716       718       719       713       716       718       720
       714       713       716       717       714       713       716       718
       715       713       716       717       715       713       716       718
       716       718       720       721       716       718       720       722
       716       718       720       723       717       716       718       719
       717       716       718       720       718       720       723       724
       718       720       723       725       719       718       720       721
       719       718       720       722       719       718       720       723
       720       723       725       726       720       723       725       727
       721       720       723       724       721       720       723       725
       722       720       723       724       722       720       723       725
       723       725       727       728       723       725       727       729
       723       725       727       730       724       723       725       726
       724       723       725       727       725       727       730       731
       725       727       730       732       726       725       727       728
       726       725       727       729       726       725       727       730
       727       730       732       733       727       730       732       734
       728       727       730       731       728       727       730       732
       729       727       730       731       729       727       730       732
       730       732       734       735       730       732       734       736
       730       732       734       737       731       730       732       733
       731       730       732       734       732       734       737       738
       732       734       737       739       732       734       737       740
       733       732       734       735       733       732       734       736
       733       732       734       737       734       737       740       741
       734       737       740       742       734       737       740       743
       735       734       737       738       735       734       737       739
       735       734       737       740       736       734       737       738
       736       734       737       739       736       734       737       740
       737       740       743       744       737       740       743       745
       737       740       743       746       738       737       740       741
       738       737       740       742       738       737       740       743
       739       737       740       741       739       737       740       742
       739       737       740       743       740       743       746       747
       740       743       746       748       740       743       746       749
       741       740       743       744       741       740       743       745
       741       740       743       746       742       740       743       744
       742       740       743       745       742       740       743       746
       744       743       746       747       744       743       746       748
       744       743       746       749       745       743       746       747
       745       743       746       748       745       743       746       749
       750       753       756       757       750       753       756       758
       750       753       756       759       751       750       753       754
       751       750       753       755       751       750       753       756
       752       750       753       754       752       750       753       755
       752       750       753       756       753       756       759       760
       753       756       759       761       753       756       759       762
       754       753       756       757       754       753       756       758
       754       753       756       759       755       753       756       757
       755       753       756       758       755       753       756       759
       756       759       762       763       756       759       762       764
       756       759       762       765       757       756       759       760
       757       756       759       761       757       756       759       762
       758       756       759       760       758       756       759       761
       758       756       759       762       759       762       765       766
       759       762       765       767       759       762       765       768
       760       759       762       763       760       759       762       764
       760       759       762       765       761       759       762       763
       761       759       762       764       761       759       762       765
       762       765       768       769       762       765       768       770
       762       765       768       771       763       762       765       766
       763       762       765       767       763       762       765       768
       764       762       765       766       764       762       765       767
       764       762       765       768       765       768       771       772
       765       768       771       773       765       768       771       774
       766       765       768       769       766       765       768       770
       766       765       768       771       767       765       768       769
       767       765       768       770       767       765       768       771
       768       771       774       775       768       771       774       776
       768       771       774       777       769       768       771       772
       769       768       771       773       769       768       771       774
       770       768       771       772       770       768       771       773
       770       768       771       774       771       774       777       778
       771       774       777       779       771       774       777       780
       772       771       774       775       772       771       774       776
       772       771       774       777       773       771       774       775
       773       771       774       776       773       771       774       777
       774       777       780       781       774       777       780       782
       774       777       780       783       775       774       777       778
       775       774       777       779       775       774       777       780
       776       774       777       778       776       774       777       779
       776       774       777       780       777       780       783       784
       777       780       783       785       777       780       783       786
       778       777       780       781       778       777       780       782
       778       777       780       783       779       777       780       781
       779       777       780       782       779       777       780       783
       780       783       786       787       780       783       786       788
       780       783       786       789       781       780       783       784
       781       780       783       785       781       780       783       786
       782       780       783       784       782       780       783       785
       782       780       783       786       783       786       789       790
       783       786       789       791       783       786       789       792
       784       783       786       787       784       783       786       788
       784       783       786       789       785       783       786       787
       785       783       786       788       785       783       786       789
       786       789       792       793       786       789       792       794
       786       789       792       795       787       786       789       790
       787       786       789       791       787       786       789       792
       788       786       789       790       788       786       789       791
       788       786       789       792       789       792       795       796
       789       792       795       797       789       792       795       798
       790       789       792       793       790       789       792       794
       790       789       792       795       791       789       792       793
       791       789       792       794       791       789       792       795
       793       792       795       796       793       792       795       797
       793       792       795       798       794       792       795       796
       794       792       795       797       794       792       795       798
     10974     10987     10990     10991     10974     10987     10990     10992
     10974     10987     10990     10997     10975     10974     10979     10980
     10975     10974     10979     10981     10975     10974     10979     10982
     10975     10974     10983     10984     10975     10974     10983     10985
     10975     10974     10983     10986     10975     10974     10987     10988
     10975     10974     10987     10989     10975     10974     10987     10990
     10976     10975     10974     10979     10976     10975     10974     10983
     10976     10975     10974     10987     10977     10975     10974     10979
     10977     10975     10974     10983     10977     10975     10974     10987
     10978     10975     10974     10979     10978     10975     10974     10983
     10978     10975     10974     10987     10979     10974     10983     10984
     10979     10974     10983     10985     10979     10974     10983     10986
     10979     10974     10987     10988     10979     10974     10987     10989
     10979     10974     10987     10990     10980     10979     10974     10983
     10980     10979     10974     10987     10981     10979     10974     10983
     10981     10979     10974     10987     10982     10979     10974     10983
     10982     10979     10974     10987     10983     10974     10987     10988
     10983     10974     10987     10989     10983     10974     10987     10990
     10984     10983     10974     10987     10985     10983     10974     10987
     10986     10983     10974     10987     10987     10990     10997     10993
     10988     10987     10990     10991     10988     10987     10990     10992
     10988     10987     10990     10997     10989     10987     10990     10991
     10989     10987     10990     10992     10989     10987     10990     10997
     10990     10997     10993     10994     10990     10997     10993     10995
     10990     10997     10993     10996     10991     10990     10997     10993
     10992     10990     10997     10993     10993     10996     10998     10999
     10993     10996     10998     11000     10993     10996     10998     11003
     10994     10993     10996     10998     10995     10993     10996     10998
     10996     10998     11003     11001     10996     10998     11003     11004
     10996     10998     11003     11005     10997     10993     10996     10998
     10998     11003     11001     11002     10998     11003     11001     11053
     10998     11003     11005     11006     10998     11003     11005     11007
     10998     11003     11005     11009     10999     10998     11003     11001
     10999     10998     11003     11004     10999     10998     11003     11005
     11000     10998     11003     11001     11000     10998     11003     11004
     11000     10998     11003     11005     11001     11003     11005     11006
     11001     11003     11005     11007     11001     11003     11005     11009
     11001     11053     11055     11056     11001     11053     11055     11057
     11001     11053     11055     11058     11002     11001     11003     11004
     11002     11001     11003     11005     11002     11001     11053     11054
     11002     11001     11053     11055     11003     11001     11053     11054
     11003     11001     11053     11055     11003     11005     11007     11008
     11003     11005     11009     11010     11003     11005     11009     11011
     11004     11003     11001     11053     11004     11003     11005     11006
     11004     11003     11005     11007     11004     11003     11005     11009
     11005     11003     11001     11053     11005     11009     11011     11012
     11005     11009     11011     11013     11006     11005     11007     11008
     11006     11005     11009     11010     11006     11005     11009     11011
     11007     11005     11009     11010     11007     11005     11009     11011
     11008     11007     11005     11009     11009     11011     11013     11014
     11009     11011     11013     11015     11009     11011     11013     11016
     11010     11009     11011     11012     11010     11009     11011     11013
     11011     11013     11016     11017     11011     11013     11016     11018
     11011     11013     11016     11019     11012     11011     11013     11014
     11012     11011     11013     11015     11012     11011     11013     11016
     11013     11016     11019     11020     11013     11016     11019     11021
     11013     11016     11019     11022     11014     11013     11016     11017
     11014     11013     11016     11018     11014     11013     11016     11019
     11015     11013     11016     11017     11015     11013     11016     11018
     11015     11013     11016     11019     11016     11019     11022     11023
     11016     11019     11022     11024     11016     11019     11022     11025
     11017     11016     11019     11020     11017     11016     11019     11021
     11017     11016     11019     11022     11018     11016     11019     11020
     11018     11016     11019     11021     11018     11016     11019     11022
     11019     11022     11025     11026     11019     11022     11025     11027
     11019     11022     11025     11028     11020     11019     11022     11023
     11020     11019     11022     11024     11020     11019     11022     11025
     11021     11019     11022     11023     11021     11019     11022     11024
     11021     11019     11022     11025     11022     11025     11028     11029
     11022     11025     11028     11030     11022     11025     11028     11031
     11023     11022     11025     11026     11023     11022     11025     11027
     11023     11022     11025     11028     11024     11022     11025     11026
     11024     11022     11025     11027     11024     11022     11025     11028
     11025     11028     11031     11032     11025     11028     11031     11033
     11025     11028     11031     11034     11026     11025     11028     11029
     11026     11025     11028     11030     11026     11025     11028     11031
     11027     11025     11028     11029     11027     11025     11028     11030
     11027     11025     11028     11031     11028     11031     11034     11035
     11028     11031     11034     11036     11028     11031     11034     11037
     11029     11028     11031     11032     11029     11028     11031     11033
     11029     11028     11031     11034     11030     11028     11031     11032
     11030     11028     11031     11033     11030     11028     11031     11034
     11031     11034     11037     11038     11031     11034     11037     11039
     11031     11034     11037     11040     11032     11031     11034     11035
     11032     11031     11034     11036     11032     11031     11034     11037
     11033     11031     11034     11035     11033     11031     11034     11036
     11033     11031     11034     11037     11034     11037     11040     11041
     11034     11037     11040     11042     11034     11037     11040     11043
     11035     11034     11037     11038     11035     11034     11037     11039
     11035     11034     11037     11040     11036     11034     11037     11038
     11036     11034     11037     11039     11036     11034     11037     11040
     11037     11040     11043     11044     11037     11040     11043     11045
     11037     11040     11043     11046     11038     11037     11040     11041
     11038     11037     11040     11042     11038     11037     11040     11043
     11039     11037     11040     11041     11039     11037     11040     11042
     11039     11037     11040     11043     11040     11043     11046     11047
     11040     11043     11046     11048     11040     11043     11046     11049
     11041     11040     11043     11044     11041     11040     11043     11045
     11041     11040     11043     11046     11042     11040     11043     11044
     11042     11040     11043     11045     11042     11040     11043     11046
     11043     11046     11049     11050     11043     11046     11049     11051
     11043     11046     11049     11052     11044     11043     11046     11047
     11044     11043     11046     11048     11044     11043     11046     11049
     11045     11043     11046     11047     11045     11043     11046     11048
     11045     11043     11046     11049     11047     11046     11049     11050
     11047     11046     11049     11051     11047     11046     11049     11052
     11048     11046     11049     11050     11048     11046     11049     11051
     11048     11046     11049     11052     11053     11055     11058     11059
     11053     11055     11058     11060     11053     11055     11058     11061
     11054     11053     11055     11056     11054     11053     11055     11057
     11054     11053     11055     11058     11055     11058     11061     11062
     11055     11058     11061     11063     11055     11058     11061     11064
     11056     11055     11058     11059     11056     11055     11058     11060
     11056     11055     11058     11061     11057     11055     11058     11059
     11057     11055     11058     11060     11057     11055     11058     11061
     11058     11061     11064     11065     11058     11061     11064     11066
     11058     11061     11064     11067     11059     11058     11061     11062
     11059     11058     11061     11063     11059     11058     11061     11064
     11060     11058     11061     11062     11060     11058     11061     11063
     11060     11058     11061     11064     11061     11064     11067     11068
     11061     11064     11067     11069     11061     11064     11067     11070
     11062     11061     11064     11065     11062     11061     11064     11066
     11062     11061     11064     11067     11063     11061     11064     11065
     11063     11061     11064     11066     11063     11061     11064     11067
     11064     11067     11070     11071     11064     11067     11070     11072
     11064     11067     11070     11073     11065     11064     11067     11068
     11065     11064     11067     11069     11065     11064     11067     11070
     11066     11064     11067     11068     11066     11064     11067     11069
     11066     11064     11067     11070     11067     11070     11073     11074
     11067     11070     11073     11075     11067     11070     11073     11076
     11068     11067     11070     11071     11068     11067     11070     11072
     11068     11067     11070     11073     11069     11067     11070     11071
     11069     11067     11070     11072     11069     11067     11070     11073
     11070     11073     11076     11077     11070     11073     11076     11078
     11071     11070     11073     11074     11071     11070     11073     11075
     11071     11070     11073     11076     11072     11070     11073     11074
     11072     11070     11073     11075     11072     11070     11073     11076
     11073     11076     11078     11079     11073     11076     11078     11080
     11074     11073     11076     11077     11074     11073     11076     11078
     11075     11073     11076     11077     11075     11073     11076     11078
     11076     11078     11080     11081     11076     11078     11080     11082
     11076     11078     11080     11083     11077     11076     11078     11079
     11077     11076     11078     11080     11078     11080     11083     11084
     11078     11080     11083     11085     11078     11080     11083     11086
     11079     11078     11080     11081     11079     11078     11080     11082
     11079     11078     11080     11083     11080     11083     11086     11087
     11080     11083     11086     11088     11080     11083     11086     11089
     11081     11080     11083     11084     11081     11080     11083     11085
     11081     11080     11083     11086     11082     11080     11083     11084
     11082     11080     11083     11085     11082     11080     11083     11086
     11083     11086     11089     11090     11083     11086     11089     11091
     11083     11086     11089     11092     11084     11083     11086     11087
     11084     11083     11086     11088     11084     11083     11086     11089
     11085     11083     11086     11087     11085     11083     11086     11088
     11085     11083     11086     11089     11086     11089     11092     11093
     11086     11089     11092     11094     11086     11089     11092     11095
     11087     11086     11089     11090     11087     11086     11089     11091
     11087     11086     11089     11092     11088     11086     11089     11090
     11088     11086     11089     11091     11088     11086     11089     11092
     11089     11092     11095     11096     11089     11092     11095     11097
     11089     11092     11095     11098     11090     11089     11092     11093
     11090     11089     11092     11094     11090     11089     11092     11095
     11091     11089     11092     11093     11091     11089     11092     11094
     11091     11089     11092     11095     11092     11095     11098     11099
     11092     11095     11098     11100     11092     11095     11098     11101
     11093     11092     11095     11096     11093     11092     11095     11097
     11093     11092     11095     11098     11094     11092     11095     11096
     11094     11092     11095     11097     11094     11092     11095     11098
     11095     11098     11101     11102     11095     11098     11101     11103
     11095     11098     11101     11104     11096     11095     11098     11099
     11096     11095     11098     11100     11096     11095     11098     11101
     11097     11095     11098     11099     11097     11095     11098     11100
     11097     11095     11098     11101     11099     11098     11101     11102
     11099     11098     11101     11103     11099     11098     11101     11104
     11100     11098     11101     11102     11100     11098     11101     11103
     11100     11098     11101     11104     19627     19640     19643     19644
     19627     19640     19643     19645     19627     19640     19643     19649
     19628     19627     19632     19633     19628     19627     19632     19634
     19628     19627     19632     19635     19628     19627     19636     19637
     19628     19627     19636     19638     19628     19627     19636     19639
     19628     19627     19640     19641     19628     19627     19640     19642
     19628     19627     19640     19643     19629     19628     19627     19632
     19629     19628     19627     19636     19629     19628     19627     19640
     19630     19628     19627     19632     19630     19628     19627     19636
     19630     19628     19627     19640     19631     19628     19627     19632
     19631     19628     19627     19636     19631     19628     19627     19640
     19632     19627     19636     19637     19632     19627     19636     19638
     19632     19627     19636     19639     19632     19627     19640     19641
     19632     19627     19640     19642     19632     19627     19640     19643
     19633     19632     19627     19636     19633     19632     19627     19640
     19634     19632     19627     19636     19634     19632     19627     19640
     19635     19632     19627     19636     19635     19632     19627     19640
     19636     19627     19640     19641     19636     19627     19640     19642
     19636     19627     19640     19643     19637     19636     19627     19640
     19638     19636     19627     19640     19639     19636     19627     19640
     19640     19643     19649     19646     19641     19640     19643     19644
     19641     19640     19643     19645     19641     19640     19643     19649
     19642     19640     19643     19644     19642     19640     19643     19645
     19642     19640     19643     19649     19643     19649     19646     19647
     19643     19649     19646     19648     19643     19649     19646     19650
     19644     19643     19649     19646     19645     19643     19649     19646
     19646     19650     19651     19652     19646     19650     19651     19653
     19646     19650     19651     19654     19647     19646     19650     19651
     19648     19646     19650     19651     19649     19646     19650     19651
     19650     19651     19654     19655     19650     19651     19654     19656
     19650     19651     19654     19662     19651     19654     19656     19657
     19651     19654     19662     19663     19651     19654     19662     19664
     19651     19654     19662     19665     19652     19651     19654     19655
     19652     19651     19654     19656     19652     19651     19654     19662
     19653     19651     19654     19655     19653     19651     19654     19656
     19653     19651     19654     19662     19654     19656     19657     19658
     19654     19656     19657     19659     19654     19662     19665     19666
     19655     19654     19656     19657     19655     19654     19662     19663
     19655     19654     19662     19664     19655     19654     19662     19665
     19656     19654     19662     19663     19656     19654     19662     19664
     19656     19654     19662     19665     19656     19657     19659     19660
     19656     19657     19659     19661     19656     19657     19659     19671
     19657     19656     19654     19662     19657     19659     19671     19672
     19657     19659     19671     19673     19657     19659     19671     19674
     19658     19657     19659     19660     19658     19657     19659     19661
     19658     19657     19659     19671     19659     19671     19674     19675
     19659     19671     19674     19676     19659     19671     19674     19677
     19660     19659     19671     19672     19660     19659     19671     19673
     19660     19659     19671     19674     19661     19659     19671     19672
     19661     19659     19671     19673     19661     19659     19671     19674
     19662     19665     19666     19667     19662     19665     19666     19668
     19663     19662     19665     19666     19664     19662     19665     19666
     19665     19666     19668     19669     19665     19666     19668     19670
     19665     19666     19668     19716     19666     19668     19716     19717
     19666     19668     19716     19718     19666     19668     19716     19719
     19667     19666     19668     19669     19667     19666     19668     19670
     19667     19666     19668     19716     19668     19716     19719     19720
     19668     19716     19719     19721     19668     19716     19719     19722
     19669     19668     19716     19717     19669     19668     19716     19718
     19669     19668     19716     19719     19670     19668     19716     19717
     19670     19668     19716     19718     19670     19668     19716     19719
     19671     19674     19677     19678     19671     19674     19677     19679
     19671     19674     19677     19680     19672     19671     19674     19675
     19672     19671     19674     19676     19672     19671     19674     19677
     19673     19671     19674     19675     19673     19671     19674     19676
     19673     19671     19674     19677     19674     19677     19680     19681
     19674     19677     19680     19682     19674     19677     19680     19683
     19675     19674     19677     19678     19675     19674     19677     19679
     19675     19674     19677     19680     19676     19674     19677     19678
     19676     19674     19677     19679     19676     19674     19677     19680
     19677     19680     19683     19684     19677     19680     19683     19685
     19677     19680     19683     19686     19678     19677     19680     19681
     19678     19677     19680     19682     19678     19677     19680     19683
     19679     19677     19680     19681     19679     19677     19680     19682
     19679     19677     19680     19683     19680     19683     19686     19687
     19680     19683     19686     19688     19680     19683     19686     19689
     19681     19680     19683     19684     19681     19680     19683     19685
     19681     19680     19683     19686     19682     19680     19683     19684
     19682     19680     19683     19685     19682     19680     19683     19686
     19683     19686     19689     19690     19683     19686     19689     19691
     19684     19683     19686     19687     19684     19683     19686     19688
     19684     19683     19686     19689     19685     19683     19686     19687
     19685     19683     19686     19688     19685     19683     19686     19689
     19686     19689     19691     19692     19686     19689     19691     19693
     19687     19686     19689     19690     19687     19686     19689     19691
     19688     19686     19689     19690     19688     19686     19689     19691
     19689     19691     19693     19694     19689     19691     19693     19695
     19689     19691     19693     19696     19690     19689     19691     19692
     19690     19689     19691     19693     19691     19693     19696     19697
     19691     19693     19696     19698     19692     19691     19693     19694
     19692     19691     19693     19695     19692     19691     19693     19696
     19693     19696     19698     19699     19693     19696     19698     19700
     19694     19693     19696     19697     19694     19693     19696     19698
     19695     19693     19696     19697     19695     19693     19696     19698
     19696     19698     19700     19701     19696     19698     19700     19702
     19696     19698     19700     19703     19697     19696     19698     19699
     19697     19696     19698     19700     19698     19700     19703     19704
     19698     19700     19703     19705     19698     19700     19703     19706
     19699     19698     19700     19701     19699     19698     19700     19702
     19699     19698     19700     19703     19700     19703     19706     19707
     19700     19703     19706     19708     19700     19703     19706     19709
     19701     19700     19703     19704     19701     19700     19703     19705
     19701     19700     19703     19706     19702     19700     19703     19704
     19702     19700     19703     19705     19702     19700     19703     19706
     19703     19706     19709     19710     19703     19706     19709     19711
     19703     19706     19709     19712     19704     19703     19706     19707
     19704     19703     19706     19708     19704     19703     19706     19709
     19705     19703     19706     19707     19705     19703     19706     19708
     19705     19703     19706     19709     19706     19709     19712     19713
     19706     19709     19712     19714     19706     19709     19712     19715
     19707     19706     19709     19710     19707     19706     19709     19711
     19707     19706     19709     19712     19708     19706     19709     19710
     19708     19706     19709     19711     19708     19706     19709     19712
     19710     19709     19712     19713     19710     19709     19712     19714
     19710     19709     19712     19715     19711     19709     19712     19713
     19711     19709     19712     19714     19711     19709     19712     19715
     19716     19719     19722     19723     19716     19719     19722     19724
     19716     19719     19722     19725     19717     19716     19719     19720
     19717     19716     19719     19721     19717     19716     19719     19722
     19718     19716     19719     19720     19718     19716     19719     19721
     19718     19716     19719     19722     19719     19722     19725     19726
     19719     19722     19725     19727     19719     19722     19725     19728
     19720     19719     19722     19723     19720     19719     19722     19724
     19720     19719     19722     19725     19721     19719     19722     19723
     19721     19719     19722     19724     19721     19719     19722     19725
     19722     19725     19728     19729     19722     19725     19728     19730
     19722     19725     19728     19731     19723     19722     19725     19726
     19723     19722     19725     19727     19723     19722     19725     19728
     19724     19722     19725     19726     19724     19722     19725     19727
     19724     19722     19725     19728     19725     19728     19731     19732
     19725     19728     19731     19733     19725     19728     19731     19734
     19726     19725     19728     19729     19726     19725     19728     19730
     19726     19725     19728     19731     19727     19725     19728     19729
     19727     19725     19728     19730     19727     19725     19728     19731
     19728     19731     19734     19735     19728     19731     19734     19736
     19728     19731     19734     19737     19729     19728     19731     19732
     19729     19728     19731     19733     19729     19728     19731     19734
     19730     19728     19731     19732     19730     19728     19731     19733
     19730     19728     19731     19734     19731     19734     19737     19738
     19731     19734     19737     19739     19731     19734     19737     19740
     19732     19731     19734     19735     19732     19731     19734     19736
     19732     19731     19734     19737     19733     19731     19734     19735
     19733     19731     19734     19736     19733     19731     19734     19737
     19734     19737     19740     19741     19734     19737     19740     19742
     19734     19737     19740     19743     19735     19734     19737     19738
     19735     19734     19737     19739     19735     19734     19737     19740
     19736     19734     19737     19738     19736     19734     19737     19739
     19736     19734     19737     19740     19737     19740     19743     19744
     19737     19740     19743     19745     19737     19740     19743     19746
     19738     19737     19740     19741     19738     19737     19740     19742
     19738     19737     19740     19743     19739     19737     19740     19741
     19739     19737     19740     19742     19739     19737     19740     19743
     19740     19743     19746     19747     19740     19743     19746     19748
     19740     19743     19746     19749     19741     19740     19743     19744
     19741     19740     19743     19745     19741     19740     19743     19746
     19742     19740     19743     19744     19742     19740     19743     19745
     19742     19740     19743     19746     19743     19746     19749     19750
     19743     19746     19749     19751     19743     19746     19749     19752
     19744     19743     19746     19747     19744     19743     19746     19748
     19744     19743     19746     19749     19745     19743     19746     19747
     19745     19743     19746     19748     19745     19743     19746     19749
     19746     19749     19752     19753     19746     19749     19752     19754
     19746     19749     19752     19755     19747     19746     19749     19750
     19747     19746     19749     19751     19747     19746     19749     19752
     19748     19746     19749     19750     19748     19746     19749     19751
     19748     19746     19749     19752     19749     19752     19755     19756
     19749     19752     19755     19757     19749     19752     19755     19758
     19750     19749     19752     19753     19750     19749     19752     19754
     19750     19749     19752     19755     19751     19749     19752     19753
     19751     19749     19752     19754     19751     19749     19752     19755
     19752     19755     19758     19759     19752     19755     19758     19760
     19752     19755     19758     19761     19753     19752     19755     19756
     19753     19752     19755     19757     19753     19752     19755     19758
     19754     19752     19755     19756     19754     19752     19755     19757
     19754     19752     19755     19758     19755     19758     19761     19762
     19755     19758     19761     19763     19755     19758     19761     19764
     19756     19755     19758     19759     19756     19755     19758     19760
     19756     19755     19758     19761     19757     19755     19758     19759
     19757     19755     19758     19760     19757     19755     19758     19761
     19759     19758     19761     19762     19759     19758     19761     19763
     19759     19758     19761     19764     19760     19758     19761     19762
     19760     19758     19761     19763     19760     19758     19761     19764
     11105     11118     11121     11122     11105     11118     11121     11123
     11105     11118     11121     11128     11106     11105     11110     11111
     11106     11105     11110     11112     11106     11105     11110     11113
     11106     11105     11114     11115     11106     11105     11114     11116
     11106     11105     11114     11117     11106     11105     11118     11119
     11106     11105     11118     11120     11106     11105     11118     11121
     11107     11106     11105     11110     11107     11106     11105     11114
     11107     11106     11105     11118     11108     11106     11105     11110
     11108     11106     11105     11114     11108     11106     11105     11118
     11109     11106     11105     11110     11109     11106     11105     11114
     11109     11106     11105     11118     11110     11105     11114     11115
     11110     11105     11114     11116     11110     11105     11114     11117
     11110     11105     11118     11119     11110     11105     11118     11120
     11110     11105     11118     11121     11111     11110     11105     11114
     11111     11110     11105     11118     11112     11110     11105     11114
     11112     11110     11105     11118     11113     11110     11105     11114
     11113     11110     11105     11118     11114     11105     11118     11119
     11114     11105     11118     11120     11114     11105     11118     11121
     11115     11114     11105     11118     11116     11114     11105     11118
     11117     11114     11105     11118     11118     11121     11128     11124
     11119     11118     11121     11122     11119     11118     11121     11123
     11119     11118     11121     11128     11120     11118     11121     11122
     11120     11118     11121     11123     11120     11118     11121     11128
     11121     11128     11124     11125     11121     11128     11124     11126
     11121     11128     11124     11127     11122     11121     11128     11124
     11123     11121     11128     11124     11124     11127     11129     11130
     11124     11127     11129     11131     11124     11127     11129     11134
     11125     11124     11127     11129     11126     11124     11127     11129
     11127     11129     11134     11132     11127     11129     11134     11135
     11127     11129     11134     11136     11128     11124     11127     11129
     11129     11134     11132     11133     11129     11134     11132     11184
     11129     11134     11136     11137     11129     11134     11136     11138
     11129     11134     11136     11140     11130     11129     11134     11132
     11130     11129     11134     11135     11130     11129     11134     11136
     11131     11129     11134     11132     11131     11129     11134     11135
     11131     11129     11134     11136     11132     11134     11136     11137
     11132     11134     11136     11138     11132     11134     11136     11140
     11132     11184     11186     11187     11132     11184     11186     11188
     11132     11184     11186     11189     11133     11132     11134     11135
     11133     11132     11134     11136     11133     11132     11184     11185
     11133     11132     11184     11186     11134     11132     11184     11185
     11134     11132     11184     11186     11134     11136     11138     11139
     11134     11136     11140     11141     11134     11136     11140     11142
     11135     11134     11132     11184     11135     11134     11136     11137
     11135     11134     11136     11138     11135     11134     11136     11140
     11136     11134     11132     11184     11136     11140     11142     11143
     11136     11140     11142     11144     11137     11136     11138     11139
     11137     11136     11140     11141     11137     11136     11140     11142
     11138     11136     11140     11141     11138     11136     11140     11142
     11139     11138     11136     11140     11140     11142     11144     11145
     11140     11142     11144     11146     11140     11142     11144     11147
     11141     11140     11142     11143     11141     11140     11142     11144
     11142     11144     11147     11148     11142     11144     11147     11149
     11142     11144     11147     11150     11143     11142     11144     11145
     11143     11142     11144     11146     11143     11142     11144     11147
     11144     11147     11150     11151     11144     11147     11150     11152
     11144     11147     11150     11153     11145     11144     11147     11148
     11145     11144     11147     11149     11145     11144     11147     11150
     11146     11144     11147     11148     11146     11144     11147     11149
     11146     11144     11147     11150     11147     11150     11153     11154
     11147     11150     11153     11155     11147     11150     11153     11156
     11148     11147     11150     11151     11148     11147     11150     11152
     11148     11147     11150     11153     11149     11147     11150     11151
     11149     11147     11150     11152     11149     11147     11150     11153
     11150     11153     11156     11157     11150     11153     11156     11158
     11150     11153     11156     11159     11151     11150     11153     11154
     11151     11150     11153     11155     11151     11150     11153     11156
     11152     11150     11153     11154     11152     11150     11153     11155
     11152     11150     11153     11156     11153     11156     11159     11160
     11153     11156     11159     11161     11153     11156     11159     11162
     11154     11153     11156     11157     11154     11153     11156     11158
     11154     11153     11156     11159     11155     11153     11156     11157
     11155     11153     11156     11158     11155     11153     11156     11159
     11156     11159     11162     11163     11156     11159     11162     11164
     11156     11159     11162     11165     11157     11156     11159     11160
     11157     11156     11159     11161     11157     11156     11159     11162
     11158     11156     11159     11160     11158     11156     11159     11161
     11158     11156     11159     11162     11159     11162     11165     11166
     11159     11162     11165     11167     11159     11162     11165     11168
     11160     11159     11162     11163     11160     11159     11162     11164
     11160     11159     11162     11165     11161     11159     11162     11163
     11161     11159     11162     11164     11161     11159     11162     11165
     11162     11165     11168     11169     11162     11165     11168     11170
     11162     11165     11168     11171     11163     11162     11165     11166
     11163     11162     11165     11167     11163     11162     11165     11168
     11164     11162     11165     11166     11164     11162     11165     11167
     11164     11162     11165     11168     11165     11168     11171     11172
     11165     11168     11171     11173     11165     11168     11171     11174
     11166     11165     11168     11169     11166     11165     11168     11170
     11166     11165     11168     11171     11167     11165     11168     11169
     11167     11165     11168     11170     11167     11165     11168     11171
     11168     11171     11174     11175     11168     11171     11174     11176
     11168     11171     11174     11177     11169     11168     11171     11172
     11169     11168     11171     11173     11169     11168     11171     11174
     11170     11168     11171     11172     11170     11168     11171     11173
     11170     11168     11171     11174     11171     11174     11177     11178
     11171     11174     11177     11179     11171     11174     11177     11180
     11172     11171     11174     11175     11172     11171     11174     11176
     11172     11171     11174     11177     11173     11171     11174     11175
     11173     11171     11174     11176     11173     11171     11174     11177
     11174     11177     11180     11181     11174     11177     11180     11182
     11174     11177     11180     11183     11175     11174     11177     11178
     11175     11174     11177     11179     11175     11174     11177     11180
     11176     11174     11177     11178     11176     11174     11177     11179
     11176     11174     11177     11180     11178     11177     11180     11181
     11178     11177     11180     11182     11178     11177     11180     11183
     11179     11177     11180     11181     11179     11177     11180     11182
     11179     11177     11180     11183     11184     11186     11189     11190
     11184     11186     11189     11191     11184     11186     11189     11192
     11185     11184     11186     11187     11185     11184     11186     11188
     11185     11184     11186     11189     11186     11189     11192     11193
     11186     11189     11192     11194     11186     11189     11192     11195
     11187     11186     11189     11190     11187     11186     11189     11191
     11187     11186     11189     11192     11188     11186     11189     11190
     11188     11186     11189     11191     11188     11186     11189     11192
     11189     11192     11195     11196     11189     11192     11195     11197
     11189     11192     11195     11198     11190     11189     11192     11193
     11190     11189     11192     11194     11190     11189     11192     11195
     11191     11189     11192     11193     11191     11189     11192     11194
     11191     11189     11192     11195     11192     11195     11198     11199
     11192     11195     11198     11200     11192     11195     11198     11201
     11193     11192     11195     11196     11193     11192     11195     11197
     11193     11192     11195     11198     11194     11192     11195     11196
     11194     11192     11195     11197     11194     11192     11195     11198
     11195     11198     11201     11202     11195     11198     11201     11203
     11195     11198     11201     11204     11196     11195     11198     11199
     11196     11195     11198     11200     11196     11195     11198     11201
     11197     11195     11198     11199     11197     11195     11198     11200
     11197     11195     11198     11201     11198     11201     11204     11205
     11198     11201     11204     11206     11198     11201     11204     11207
     11199     11198     11201     11202     11199     11198     11201     11203
     11199     11198     11201     11204     11200     11198     11201     11202
     11200     11198     11201     11203     11200     11198     11201     11204
     11201     11204     11207     11208     11201     11204     11207     11209
     11202     11201     11204     11205     11202     11201     11204     11206
     11202     11201     11204     11207     11203     11201     11204     11205
     11203     11201     11204     11206     11203     11201     11204     11207
     11204     11207     11209     11210     11204     11207     11209     11211
     11205     11204     11207     11208     11205     11204     11207     11209
     11206     11204     11207     11208     11206     11204     11207     11209
     11207     11209     11211     11212     11207     11209     11211     11213
     11207     11209     11211     11214     11208     11207     11209     11210
     11208     11207     11209     11211     11209     11211     11214     11215
     11209     11211     11214     11216     11209     11211     11214     11217
     11210     11209     11211     11212     11210     11209     11211     11213
     11210     11209     11211     11214     11211     11214     11217     11218
     11211     11214     11217     11219     11211     11214     11217     11220
     11212     11211     11214     11215     11212     11211     11214     11216
     11212     11211     11214     11217     11213     11211     11214     11215
     11213     11211     11214     11216     11213     11211     11214     11217
     11214     11217     11220     11221     11214     11217     11220     11222
     11214     11217     11220     11223     11215     11214     11217     11218
     11215     11214     11217     11219     11215     11214     11217     11220
     11216     11214     11217     11218     11216     11214     11217     11219
     11216     11214     11217     11220     11217     11220     11223     11224
     11217     11220     11223     11225     11217     11220     11223     11226
     11218     11217     11220     11221     11218     11217     11220     11222
     11218     11217     11220     11223     11219     11217     11220     11221
     11219     11217     11220     11222     11219     11217     11220     11223
     11220     11223     11226     11227     11220     11223     11226     11228
     11220     11223     11226     11229     11221     11220     11223     11224
     11221     11220     11223     11225     11221     11220     11223     11226
     11222     11220     11223     11224     11222     11220     11223     11225
     11222     11220     11223     11226     11223     11226     11229     11230
     11223     11226     11229     11231     11223     11226     11229     11232
     11224     11223     11226     11227     11224     11223     11226     11228
     11224     11223     11226     11229     11225     11223     11226     11227
     11225     11223     11226     11228     11225     11223     11226     11229
     11226     11229     11232     11233     11226     11229     11232     11234
     11226     11229     11232     11235     11227     11226     11229     11230
     11227     11226     11229     11231     11227     11226     11229     11232
     11228     11226     11229     11230     11228     11226     11229     11231
     11228     11226     11229     11232     11230     11229     11232     11233
     11230     11229     11232     11234     11230     11229     11232     11235
     11231     11229     11232     11233     11231     11229     11232     11234
     11231     11229     11232     11235     11236     11249     11252     11253
     11236     11249     11252     11254     11236     11249     11252     11259
     11237     11236     11241     11242     11237     11236     11241     11243
     11237     11236     11241     11244     11237     11236     11245     11246
     11237     11236     11245     11247     11237     11236     11245     11248
     11237     11236     11249     11250     11237     11236     11249     11251
     11237     11236     11249     11252     11238     11237     11236     11241
     11238     11237     11236     11245     11238     11237     11236     11249
     11239     11237     11236     11241     11239     11237     11236     11245
     11239     11237     11236     11249     11240     11237     11236     11241
     11240     11237     11236     11245     11240     11237     11236     11249
     11241     11236     11245     11246     11241     11236     11245     11247
     11241     11236     11245     11248     11241     11236     11249     11250
     11241     11236     11249     11251     11241     11236     11249     11252
     11242     11241     11236     11245     11242     11241     11236     11249
     11243     11241     11236     11245     11243     11241     11236     11249
     11244     11241     11236     11245     11244     11241     11236     11249
     11245     11236     11249     11250     11245     11236     11249     11251
     11245     11236     11249     11252     11246     11245     11236     11249
     11247     11245     11236     11249     11248     11245     11236     11249
     11249     11252     11259     11255     11250     11249     11252     11253
     11250     11249     11252     11254     11250     11249     11252     11259
     11251     11249     11252     11253     11251     11249     11252     11254
     11251     11249     11252     11259     11252     11259     11255     11256
     11252     11259     11255     11257     11252     11259     11255     11258
     11253     11252     11259     11255     11254     11252     11259     11255
     11255     11258     11260     11261     11255     11258     11260     11262
     11255     11258     11260     11265     11256     11255     11258     11260
     11257     11255     11258     11260     11258     11260     11265     11263
     11258     11260     11265     11266     11258     11260     11265     11267
     11259     11255     11258     11260     11260     11265     11263     11264
     11260     11265     11263     11315     11260     11265     11267     11268
     11260     11265     11267     11269     11260     11265     11267     11271
     11261     11260     11265     11263     11261     11260     11265     11266
     11261     11260     11265     11267     11262     11260     11265     11263
     11262     11260     11265     11266     11262     11260     11265     11267
     11263     11265     11267     11268     11263     11265     11267     11269
     11263     11265     11267     11271     11263     11315     11317     11318
     11263     11315     11317     11319     11263     11315     11317     11320
     11264     11263     11265     11266     11264     11263     11265     11267
     11264     11263     11315     11316     11264     11263     11315     11317
     11265     11263     11315     11316     11265     11263     11315     11317
     11265     11267     11269     11270     11265     11267     11271     11272
     11265     11267     11271     11273     11266     11265     11263     11315
     11266     11265     11267     11268     11266     11265     11267     11269
     11266     11265     11267     11271     11267     11265     11263     11315
     11267     11271     11273     11274     11267     11271     11273     11275
     11268     11267     11269     11270     11268     11267     11271     11272
     11268     11267     11271     11273     11269     11267     11271     11272
     11269     11267     11271     11273     11270     11269     11267     11271
     11271     11273     11275     11276     11271     11273     11275     11277
     11271     11273     11275     11278     11272     11271     11273     11274
     11272     11271     11273     11275     11273     11275     11278     11279
     11273     11275     11278     11280     11273     11275     11278     11281
     11274     11273     11275     11276     11274     11273     11275     11277
     11274     11273     11275     11278     11275     11278     11281     11282
     11275     11278     11281     11283     11275     11278     11281     11284
     11276     11275     11278     11279     11276     11275     11278     11280
     11276     11275     11278     11281     11277     11275     11278     11279
     11277     11275     11278     11280     11277     11275     11278     11281
     11278     11281     11284     11285     11278     11281     11284     11286
     11278     11281     11284     11287     11279     11278     11281     11282
     11279     11278     11281     11283     11279     11278     11281     11284
     11280     11278     11281     11282     11280     11278     11281     11283
     11280     11278     11281     11284     11281     11284     11287     11288
     11281     11284     11287     11289     11281     11284     11287     11290
     11282     11281     11284     11285     11282     11281     11284     11286
     11282     11281     11284     11287     11283     11281     11284     11285
     11283     11281     11284     11286     11283     11281     11284     11287
     11284     11287     11290     11291     11284     11287     11290     11292
     11284     11287     11290     11293     11285     11284     11287     11288
     11285     11284     11287     11289     11285     11284     11287     11290
     11286     11284     11287     11288     11286     11284     11287     11289
     11286     11284     11287     11290     11287     11290     11293     11294
     11287     11290     11293     11295     11287     11290     11293     11296
     11288     11287     11290     11291     11288     11287     11290     11292
     11288     11287     11290     11293     11289     11287     11290     11291
     11289     11287     11290     11292     11289     11287     11290     11293
     11290     11293     11296     11297     11290     11293     11296     11298
     11290     11293     11296     11299     11291     11290     11293     11294
     11291     11290     11293     11295     11291     11290     11293     11296
     11292     11290     11293     11294     11292     11290     11293     11295
     11292     11290     11293     11296     11293     11296     11299     11300
     11293     11296     11299     11301     11293     11296     11299     11302
     11294     11293     11296     11297     11294     11293     11296     11298
     11294     11293     11296     11299     11295     11293     11296     11297
     11295     11293     11296     11298     11295     11293     11296     11299
     11296     11299     11302     11303     11296     11299     11302     11304
     11296     11299     11302     11305     11297     11296     11299     11300
     11297     11296     11299     11301     11297     11296     11299     11302
     11298     11296     11299     11300     11298     11296     11299     11301
     11298     11296     11299     11302     11299     11302     11305     11306
     11299     11302     11305     11307     11299     11302     11305     11308
     11300     11299     11302     11303     11300     11299     11302     11304
     11300     11299     11302     11305     11301     11299     11302     11303
     11301     11299     11302     11304     11301     11299     11302     11305
     11302     11305     11308     11309     11302     11305     11308     11310
     11302     11305     11308     11311     11303     11302     11305     11306
     11303     11302     11305     11307     11303     11302     11305     11308
     11304     11302     11305     11306     11304     11302     11305     11307
     11304     11302     11305     11308     11305     11308     11311     11312
     11305     11308     11311     11313     11305     11308     11311     11314
     11306     11305     11308     11309     11306     11305     11308     11310
     11306     11305     11308     11311     11307     11305     11308     11309
     11307     11305     11308     11310     11307     11305     11308     11311
     11309     11308     11311     11312     11309     11308     11311     11313
     11309     11308     11311     11314     11310     11308     11311     11312
     11310     11308     11311     11313     11310     11308     11311     11314
     11315     11317     11320     11321     11315     11317     11320     11322
     11315     11317     11320     11323     11316     11315     11317     11318
     11316     11315     11317     11319     11316     11315     11317     11320
     11317     11320     11323     11324     11317     11320     11323     11325
     11317     11320     11323     11326     11318     11317     11320     11321
     11318     11317     11320     11322     11318     11317     11320     11323
     11319     11317     11320     11321     11319     11317     11320     11322
     11319     11317     11320     11323     11320     11323     11326     11327
     11320     11323     11326     11328     11320     11323     11326     11329
     11321     11320     11323     11324     11321     11320     11323     11325
     11321     11320     11323     11326     11322     11320     11323     11324
     11322     11320     11323     11325     11322     11320     11323     11326
     11323     11326     11329     11330     11323     11326     11329     11331
     11323     11326     11329     11332     11324     11323     11326     11327
     11324     11323     11326     11328     11324     11323     11326     11329
     11325     11323     11326     11327     11325     11323     11326     11328
     11325     11323     11326     11329     11326     11329     11332     11333
     11326     11329     11332     11334     11326     11329     11332     11335
     11327     11326     11329     11330     11327     11326     11329     11331
     11327     11326     11329     11332     11328     11326     11329     11330
     11328     11326     11329     11331     11328     11326     11329     11332
     11329     11332     11335     11336     11329     11332     11335     11337
     11329     11332     11335     11338     11330     11329     11332     11333
     11330     11329     11332     11334     11330     11329     11332     11335
     11331     11329     11332     11333     11331     11329     11332     11334
     11331     11329     11332     11335     11332     11335     11338     11339
     11332     11335     11338     11340     11333     11332     11335     11336
     11333     11332     11335     11337     11333     11332     11335     11338
     11334     11332     11335     11336     11334     11332     11335     11337
     11334     11332     11335     11338     11335     11338     11340     11341
     11335     11338     11340     11342     11336     11335     11338     11339
     11336     11335     11338     11340     11337     11335     11338     11339
     11337     11335     11338     11340     11338     11340     11342     11343
     11338     11340     11342     11344     11338     11340     11342     11345
     11339     11338     11340     11341     11339     11338     11340     11342
     11340     11342     11345     11346     11340     11342     11345     11347
     11340     11342     11345     11348     11341     11340     11342     11343
     11341     11340     11342     11344     11341     11340     11342     11345
     11342     11345     11348     11349     11342     11345     11348     11350
     11342     11345     11348     11351     11343     11342     11345     11346
     11343     11342     11345     11347     11343     11342     11345     11348
     11344     11342     11345     11346     11344     11342     11345     11347
     11344     11342     11345     11348     11345     11348     11351     11352
     11345     11348     11351     11353     11345     11348     11351     11354
     11346     11345     11348     11349     11346     11345     11348     11350
     11346     11345     11348     11351     11347     11345     11348     11349
     11347     11345     11348     11350     11347     11345     11348     11351
     11348     11351     11354     11355     11348     11351     11354     11356
     11348     11351     11354     11357     11349     11348     11351     11352
     11349     11348     11351     11353     11349     11348     11351     11354
     11350     11348     11351     11352     11350     11348     11351     11353
     11350     11348     11351     11354     11351     11354     11357     11358
     11351     11354     11357     11359     11351     11354     11357     11360
     11352     11351     11354     11355     11352     11351     11354     11356
     11352     11351     11354     11357     11353     11351     11354     11355
     11353     11351     11354     11356     11353     11351     11354     11357
     11354     11357     11360     11361     11354     11357     11360     11362
     11354     11357     11360     11363     11355     11354     11357     11358
     11355     11354     11357     11359     11355     11354     11357     11360
     11356     11354     11357     11358     11356     11354     11357     11359
     11356     11354     11357     11360     11357     11360     11363     11364
     11357     11360     11363     11365     11357     11360     11363     11366
     11358     11357     11360     11361     11358     11357     11360     11362
     11358     11357     11360     11363     11359     11357     11360     11361
     11359     11357     11360     11362     11359     11357     11360     11363
     11361     11360     11363     11364     11361     11360     11363     11365
     11361     11360     11363     11366     11362     11360     11363     11364
     11362     11360     11363     11365     11362     11360     11363     11366
      3771      3775      3778      3779      3771      3775      3778      3809
      3771      3817      3814      3809      3771      3817      3814      3815
      3771      3817      3814      3816      3772      3771      3773      3774
      3772      3771      3775      3776      3772      3771      3775      3777
      3772      3771      3775      3778      3772      3771      3817      3814
      3772      3771      3817      3818      3772      3771      3817      3819
      3773      3771      3775      3776      3773      3771      3775      3777
      3773      3771      3775      3778      3773      3771      3817      3814
      3773      3771      3817      3818      3773      3771      3817      3819
      3774      3773      3771      3775      3774      3773      3771      3817
      3775      3771      3817      3814      3775      3771      3817      3818
      3775      3771      3817      3819      3775      3778      3779      3780
      3775      3778      3779      3781      3775      3778      3809      3807
      3775      3778      3809      3810      3775      3778      3809      3814
      3776      3775      3771      3817      3776      3775      3778      3779
      3776      3775      3778      3809      3777      3775      3771      3817
      3777      3775      3778      3779      3777      3775      3778      3809
      3778      3775      3771      3817      3778      3779      3781      3782
      3778      3779      3781      3783      3778      3779      3781      3784
      3778      3809      3807      3784      3778      3809      3807      3804
      3778      3809      3807      3808      3778      3809      3810      3811
      3778      3809      3810      3812      3778      3809      3810      3813
      3778      3809      3814      3815      3778      3809      3814      3816
      3778      3809      3814      3817      3779      3778      3809      3807
      3779      3778      3809      3810      3779      3778      3809      3814
      3779      3781      3784      3785      3779      3781      3784      3786
      3779      3781      3784      3807      3780      3779      3778      3809
      3780      3779      3781      3782      3780      3779      3781      3783
      3780      3779      3781      3784      3781      3779      3778      3809
      3781      3784      3786      3787      3781      3784      3786      3788
      3781      3784      3786      3796      3781      3784      3807      3804
      3781      3784      3807      3808      3781      3784      3807      3809
      3782      3781      3784      3785      3782      3781      3784      3786
      3782      3781      3784      3807      3783      3781      3784      3785
      3783      3781      3784      3786      3783      3781      3784      3807
      3784      3786      3788      3789      3784      3786      3788      3790
      3784      3786      3788      3791      3784      3786      3796      3794
      3784      3786      3796      3797      3784      3786      3796      3801
      3784      3807      3804      3801      3784      3807      3804      3805
      3784      3807      3804      3806      3784      3807      3809      3810
      3784      3807      3809      3814      3785      3784      3786      3787
      3785      3784      3786      3788      3785      3784      3786      3796
      3785      3784      3807      3804      3785      3784      3807      3808
      3785      3784      3807      3809      3786      3784      3807      3804
      3786      3784      3807      3808      3786      3784      3807      3809
      3786      3788      3791      3792      3786      3788      3791      3793
      3786      3788      3791      3794      3786      3796      3794      3791
      3786      3796      3794      3795      3786      3796      3794      3820
      3786      3796      3797      3798      3786      3796      3797      3799
      3786      3796      3797      3800      3786      3796      3801      3802
      3786      3796      3801      3803      3786      3796      3801      3804
      3787      3786      3784      3807      3787      3786      3788      3789
      3787      3786      3788      3790      3787      3786      3788      3791
      3787      3786      3796      3794      3787      3786      3796      3797
      3787      3786      3796      3801      3788      3786      3784      3807
      3788      3786      3796      3794      3788      3786      3796      3797
      3788      3786      3796      3801      3788      3791      3794      3795
      3788      3791      3794      3796      3788      3791      3794      3820
      3789      3788      3786      3796      3789      3788      3791      3792
      3789      3788      3791      3793      3789      3788      3791      3794
      3790      3788      3786      3796      3790      3788      3791      3792
      3790      3788      3791      3793      3790      3788      3791      3794
      3791      3788      3786      3796      3791      3794      3796      3797
      3791      3794      3796      3801      3791      3794      3820      3821
      3791      3794      3820      3822      3791      3794      3820      3826
      3792      3791      3794      3795      3792      3791      3794      3796
      3792      3791      3794      3820      3793      3791      3794      3795
      3793      3791      3794      3796      3793      3791      3794      3820
      3794      3796      3797      3798      3794      3796      3797      3799
      3794      3796      3797      3800      3794      3796      3801      3802
      3794      3796      3801      3803      3794      3796      3801      3804
      3794      3820      3822      3823      3794      3820      3822      3824
      3794      3820      3822      3825      3794      3820      3826      3827
      3794      3820      3826      3828      3794      3820      3826      3829
      3795      3794      3796      3797      3795      3794      3796      3801
      3795      3794      3820      3821      3795      3794      3820      3822
      3795      3794      3820      3826      3796      3786      3784      3807
      3796      3794      3820      3821      3796      3794      3820      3822
      3796      3794      3820      3826      3796      3801      3804      3805
      3796      3801      3804      3806      3796      3801      3804      3807
      3797      3796      3794      3820      3797      3796      3801      3802
      3797      3796      3801      3803      3797      3796      3801      3804
      3798      3797      3796      3801      3799      3797      3796      3801
      3800      3797      3796      3801      3801      3796      3794      3820
      3801      3804      3807      3808      3801      3804      3807      3809
      3802      3801      3804      3805      3802      3801      3804      3806
      3802      3801      3804      3807      3803      3801      3804      3805
      3803      3801      3804      3806      3803      3801      3804      3807
      3804      3807      3809      3810      3804      3807      3809      3814
      3805      3804      3807      3808      3805      3804      3807      3809
      3806      3804      3807      3808      3806      3804      3807      3809
      3807      3809      3810      3811      3807      3809      3810      3812
      3807      3809      3810      3813      3807      3809      3814      3815
      3807      3809      3814      3816      3807      3809      3814      3817
      3808      3807      3809      3810      3808      3807      3809      3814
      3809      3814      3817      3818      3809      3814      3817      3819
      3810      3809      3814      3815      3810      3809      3814      3816
      3810      3809      3814      3817      3811      3810      3809      3814
      3812      3810      3809      3814      3813      3810      3809      3814
      3815      3814      3817      3818      3815      3814      3817      3819
      3816      3814      3817      3818      3816      3814      3817      3819
      3820      3826      3829      3830      3820      3826      3829      3831
      3820      3826      3829      3832      3821      3820      3822      3823
      3821      3820      3822      3824      3821      3820      3822      3825
      3821      3820      3826      3827      3821      3820      3826      3828
      3821      3820      3826      3829      3822      3820      3826      3827
      3822      3820      3826      3828      3822      3820      3826      3829
      3823      3822      3820      3826      3824      3822      3820      3826
      3825      3822      3820      3826      3826      3829      3832      3833
      3826      3829      3832      3834      3826      3829      3832      3835
      3827      3826      3829      3830      3827      3826      3829      3831
      3827      3826      3829      3832      3828      3826      3829      3830
      3828      3826      3829      3831      3828      3826      3829      3832
      3829      3832      3835      3836      3829      3832      3835      3837
      3829      3832      3835      3841      3830      3829      3832      3833
      3830      3829      3832      3834      3830      3829      3832      3835
      3831      3829      3832      3833      3831      3829      3832      3834
      3831      3829      3832      3835      3832      3835      3837      3838
      3832      3835      3837      3839      3832      3835      3837      3840
      3832      3835      3841      3842      3832      3835      3841      3843
      3832      3835      3841      3844      3833      3832      3835      3836
      3833      3832      3835      3837      3833      3832      3835      3841
      3834      3832      3835      3836      3834      3832      3835      3837
      3834      3832      3835      3841      3836      3835      3837      3838
      3836      3835      3837      3839      3836      3835      3837      3840
      3836      3835      3841      3842      3836      3835      3841      3843
      3836      3835      3841      3844      3837      3835      3841      3842
      3837      3835      3841      3843      3837      3835      3841      3844
      3838      3837      3835      3841      3839      3837      3835      3841
      3840      3837      3835      3841      7329      7333      7336      7337
      7329      7333      7336      7338      7329      7333      7336      7342
      7330      7329      7333      7334      7330      7329      7333      7335
      7330      7329      7333      7336      7331      7329      7333      7334
      7331      7329      7333      7335      7331      7329      7333      7336
      7332      7329      7333      7334      7332      7329      7333      7335
      7332      7329      7333      7336      7333      7336      7342      7339
      7334      7333      7336      7337      7334      7333      7336      7338
      7334      7333      7336      7342      7335      7333      7336      7337
      7335      7333      7336      7338      7335      7333      7336      7342
      7336      7342      7339      7340      7336      7342      7339      7341
      7336      7342      7339      7343      7337      7336      7342      7339
      7338      7336      7342      7339      7339      7343      7344      7345
      7339      7343      7344      7346      7339      7343      7344      7347
      7340      7339      7343      7344      7341      7339      7343      7344
      7342      7339      7343      7344      7343      7344      7347      7348
      7343      7344      7347      7349      7343      7344      7347      7355
      7344      7347      7349      7350      7344      7347      7355      7356
      7344      7347      7355      7357      7344      7347      7355      7358
      7345      7344      7347      7348      7345      7344      7347      7349
      7345      7344      7347      7355      7346      7344      7347      7348
      7346      7344      7347      7349      7346      7344      7347      7355
      7347      7349      7350      7351      7347      7349      7350      7352
      7347      7355      7358      7359      7348      7347      7349      7350
      7348      7347      7355      7356      7348      7347      7355      7357
      7348      7347      7355      7358      7349      7347      7355      7356
      7349      7347      7355      7357      7349      7347      7355      7358
      7349      7350      7352      7353      7349      7350      7352      7354
      7349      7350      7352      7364      7350      7349      7347      7355
      7350      7352      7364      7365      7350      7352      7364      7366
      7350      7352      7364      7367      7351      7350      7352      7353
      7351      7350      7352      7354      7351      7350      7352      7364
      7352      7364      7367      7368      7352      7364      7367      7369
      7352      7364      7367      7370      7353      7352      7364      7365
      7353      7352      7364      7366      7353      7352      7364      7367
      7354      7352      7364      7365      7354      7352      7364      7366
      7354      7352      7364      7367      7355      7358      7359      7360
      7355      7358      7359      7361      7356      7355      7358      7359
      7357      7355      7358      7359      7358      7359      7361      7362
      7358      7359      7361      7363      7358      7359      7361      7411
      7359      7361      7411      7412      7359      7361      7411      7413
      7359      7361      7411      7414      7360      7359      7361      7362
      7360      7359      7361      7363      7360      7359      7361      7411
      7361      7411      7414      7415      7361      7411      7414      7416
      7361      7411      7414      7417      7362      7361      7411      7412
      7362      7361      7411      7413      7362      7361      7411      7414
      7363      7361      7411      7412      7363      7361      7411      7413
      7363      7361      7411      7414      7364      7367      7370      7371
      7364      7367      7370      7372      7364      7367      7370      7373
      7365      7364      7367      7368      7365      7364      7367      7369
      7365      7364      7367      7370      7366      7364      7367      7368
      7366      7364      7367      7369      7366      7364      7367      7370
      7367      7370      7373      7374      7367      7370      7373      7375
      7367      7370      7373      7376      7368      7367      7370      7371
      7368      7367      7370      7372      7368      7367      7370      7373
      7369      7367      7370      7371      7369      7367      7370      7372
      7369      7367      7370      7373      7370      7373      7376      7377
      7370      7373      7376      7378      7370      7373      7376      7379
      7371      7370      7373      7374      7371      7370      7373      7375
      7371      7370      7373      7376      7372      7370      7373      7374
      7372      7370      7373      7375      7372      7370      7373      7376
      7373      7376      7379      7380      7373      7376      7379      7381
      7373      7376      7379      7382      7374      7373      7376      7377
      7374      7373      7376      7378      7374      7373      7376      7379
      7375      7373      7376      7377      7375      7373      7376      7378
      7375      7373      7376      7379      7376      7379      7382      7383
      7376      7379      7382      7384      7377      7376      7379      7380
      7377      7376      7379      7381      7377      7376      7379      7382
      7378      7376      7379      7380      7378      7376      7379      7381
      7378      7376      7379      7382      7379      7382      7384      7385
      7379      7382      7384      7386      7380      7379      7382      7383
      7380      7379      7382      7384      7381      7379      7382      7383
      7381      7379      7382      7384      7382      7384      7386      7387
      7382      7384      7386      7388      7382      7384      7386      7389
      7383      7382      7384      7385      7383      7382      7384      7386
      7384      7386      7389      7390      7384      7386      7389      7391
      7384      7386      7389      7392      7385      7384      7386      7387
      7385      7384      7386      7388      7385      7384      7386      7389
      7386      7389      7392      7393      7386      7389      7392      7394
      7386      7389      7392      7395      7387      7386      7389      7390
      7387      7386      7389      7391      7387      7386      7389      7392
      7388      7386      7389      7390      7388      7386      7389      7391
      7388      7386      7389      7392      7389      7392      7395      7396
      7389      7392      7395      7397      7389      7392      7395      7398
      7390      7389      7392      7393      7390      7389      7392      7394
      7390      7389      7392      7395      7391      7389      7392      7393
      7391      7389      7392      7394      7391      7389      7392      7395
      7392      7395      7398      7399      7392      7395      7398      7400
      7392      7395      7398      7401      7393      7392      7395      7396
      7393      7392      7395      7397      7393      7392      7395      7398
      7394      7392      7395      7396      7394      7392      7395      7397
      7394      7392      7395      7398      7395      7398      7401      7402
      7395      7398      7401      7403      7395      7398      7401      7404
      7396      7395      7398      7399      7396      7395      7398      7400
      7396      7395      7398      7401      7397      7395      7398      7399
      7397      7395      7398      7400      7397      7395      7398      7401
      7398      7401      7404      7405      7398      7401      7404      7406
      7398      7401      7404      7407      7399      7398      7401      7402
      7399      7398      7401      7403      7399      7398      7401      7404
      7400      7398      7401      7402      7400      7398      7401      7403
      7400      7398      7401      7404      7401      7404      7407      7408
      7401      7404      7407      7409      7401      7404      7407      7410
      7402      7401      7404      7405      7402      7401      7404      7406
      7402      7401      7404      7407      7403      7401      7404      7405
      7403      7401      7404      7406      7403      7401      7404      7407
      7405      7404      7407      7408      7405      7404      7407      7409
      7405      7404      7407      7410      7406      7404      7407      7408
      7406      7404      7407      7409      7406      7404      7407      7410
      7411      7414      7417      7418      7411      7414      7417      7419
      7411      7414      7417      7420      7412      7411      7414      7415
      7412      7411      7414      7416      7412      7411      7414      7417
      7413      7411      7414      7415      7413      7411      7414      7416
      7413      7411      7414      7417      7414      7417      7420      7421
      7414      7417      7420      7422      7414      7417      7420      7423
      7415      7414      7417      7418      7415      7414      7417      7419
      7415      7414      7417      7420      7416      7414      7417      7418
      7416      7414      7417      7419      7416      7414      7417      7420
      7417      7420      7423      7424      7417      7420      7423      7425
      7417      7420      7423      7426      7418      7417      7420      7421
      7418      7417      7420      7422      7418      7417      7420      7423
      7419      7417      7420      7421      7419      7417      7420      7422
      7419      7417      7420      7423      7420      7423      7426      7427
      7420      7423      7426      7428      7420      7423      7426      7429
      7421      7420      7423      7424      7421      7420      7423      7425
      7421      7420      7423      7426      7422      7420      7423      7424
      7422      7420      7423      7425      7422      7420      7423      7426
      7423      7426      7429      7430      7423      7426      7429      7431
      7423      7426      7429      7432      7424      7423      7426      7427
      7424      7423      7426      7428      7424      7423      7426      7429
      7425      7423      7426      7427      7425      7423      7426      7428
      7425      7423      7426      7429      7426      7429      7432      7433
      7426      7429      7432      7434      7426      7429      7432      7435
      7427      7426      7429      7430      7427      7426      7429      7431
      7427      7426      7429      7432      7428      7426      7429      7430
      7428      7426      7429      7431      7428      7426      7429      7432
      7429      7432      7435      7436      7429      7432      7435      7437
      7429      7432      7435      7438      7430      7429      7432      7433
      7430      7429      7432      7434      7430      7429      7432      7435
      7431      7429      7432      7433      7431      7429      7432      7434
      7431      7429      7432      7435      7432      7435      7438      7439
      7432      7435      7438      7440      7432      7435      7438      7441
      7433      7432      7435      7436      7433      7432      7435      7437
      7433      7432      7435      7438      7434      7432      7435      7436
      7434      7432      7435      7437      7434      7432      7435      7438
      7435      7438      7441      7442      7435      7438      7441      7443
      7435      7438      7441      7444      7436      7435      7438      7439
      7436      7435      7438      7440      7436      7435      7438      7441
      7437      7435      7438      7439      7437      7435      7438      7440
      7437      7435      7438      7441      7438      7441      7444      7445
      7438      7441      7444      7446      7438      7441      7444      7447
      7439      7438      7441      7442      7439      7438      7441      7443
      7439      7438      7441      7444      7440      7438      7441      7442
      7440      7438      7441      7443      7440      7438      7441      7444
      7441      7444      7447      7448      7441      7444      7447      7449
      7441      7444      7447      7450      7442      7441      7444      7445
      7442      7441      7444      7446      7442      7441      7444      7447
      7443      7441      7444      7445      7443      7441      7444      7446
      7443      7441      7444      7447      7444      7447      7450      7451
      7444      7447      7450      7452      7444      7447      7450      7453
      7445      7444      7447      7448      7445      7444      7447      7449
      7445      7444      7447      7450      7446      7444      7447      7448
      7446      7444      7447      7449      7446      7444      7447      7450
      7447      7450      7453      7454      7447      7450      7453      7455
      7447      7450      7453      7456      7448      7447      7450      7451
      7448      7447      7450      7452      7448      7447      7450      7453
      7449      7447      7450      7451      7449      7447      7450      7452
      7449      7447      7450      7453      7450      7453      7456      7457
      7450      7453      7456      7458      7450      7453      7456      7459
      7451      7450      7453      7454      7451      7450      7453      7455
      7451      7450      7453      7456      7452      7450      7453      7454
      7452      7450      7453      7455      7452      7450      7453      7456
      7454      7453      7456      7457      7454      7453      7456      7458
      7454      7453      7456      7459      7455      7453      7456      7457
      7455      7453      7456      7458      7455      7453      7456      7459
      3845      3849      3852      3853      3845      3849      3852      3883
      3845      3891      3888      3883      3845      3891      3888      3889
      3845      3891      3888      3890      3846      3845      3847      3848
      3846      3845      3849      3850      3846      3845      3849      3851
      3846      3845      3849      3852      3846      3845      3891      3888
      3846      3845      3891      3892      3846      3845      3891      3893
      3847      3845      3849      3850      3847      3845      3849      3851
      3847      3845      3849      3852      3847      3845      3891      3888
      3847      3845      3891      3892      3847      3845      3891      3893
      3848      3847      3845      3849      3848      3847      3845      3891
      3849      3845      3891      3888      3849      3845      3891      3892
      3849      3845      3891      3893      3849      3852      3853      3854
      3849      3852      3853      3855      3849      3852      3883      3881
      3849      3852      3883      3884      3849      3852      3883      3888
      3850      3849      3845      3891      3850      3849      3852      3853
      3850      3849      3852      3883      3851      3849      3845      3891
      3851      3849      3852      3853      3851      3849      3852      3883
      3852      3849      3845      3891      3852      3853      3855      3856
      3852      3853      3855      3857      3852      3853      3855      3858
      3852      3883      3881      3858      3852      3883      3881      3878
      3852      3883      3881      3882      3852      3883      3884      3885
      3852      3883      3884      3886      3852      3883      3884      3887
      3852      3883      3888      3889      3852      3883      3888      3890
      3852      3883      3888      3891      3853      3852      3883      3881
      3853      3852      3883      3884      3853      3852      3883      3888
      3853      3855      3858      3859      3853      3855      3858      3860
      3853      3855      3858      3881      3854      3853      3852      3883
      3854      3853      3855      3856      3854      3853      3855      3857
      3854      3853      3855      3858      3855      3853      3852      3883
      3855      3858      3860      3861      3855      3858      3860      3862
      3855      3858      3860      3870      3855      3858      3881      3878
      3855      3858      3881      3882      3855      3858      3881      3883
      3856      3855      3858      3859      3856      3855      3858      3860
      3856      3855      3858      3881      3857      3855      3858      3859
      3857      3855      3858      3860      3857      3855      3858      3881
      3858      3860      3862      3863      3858      3860      3862      3864
      3858      3860      3862      3865      3858      3860      3870      3868
      3858      3860      3870      3871      3858      3860      3870      3875
      3858      3881      3878      3875      3858      3881      3878      3879
      3858      3881      3878      3880      3858      3881      3883      3884
      3858      3881      3883      3888      3859      3858      3860      3861
      3859      3858      3860      3862      3859      3858      3860      3870
      3859      3858      3881      3878      3859      3858      3881      3882
      3859      3858      3881      3883      3860      3858      3881      3878
      3860      3858      3881      3882      3860      3858      3881      3883
      3860      3862      3865      3866      3860      3862      3865      3867
      3860      3862      3865      3868      3860      3870      3868      3865
      3860      3870      3868      3869      3860      3870      3868      3894
      3860      3870      3871      3872      3860      3870      3871      3873
      3860      3870      3871      3874      3860      3870      3875      3876
      3860      3870      3875      3877      3860      3870      3875      3878
      3861      3860      3858      3881      3861      3860      3862      3863
      3861      3860      3862      3864      3861      3860      3862      3865
      3861      3860      3870      3868      3861      3860      3870      3871
      3861      3860      3870      3875      3862      3860      3858      3881
      3862      3860      3870      3868      3862      3860      3870      3871
      3862      3860      3870      3875      3862      3865      3868      3869
      3862      3865      3868      3870      3862      3865      3868      3894
      3863      3862      3860      3870      3863      3862      3865      3866
      3863      3862      3865      3867      3863      3862      3865      3868
      3864      3862      3860      3870      3864      3862      3865      3866
      3864      3862      3865      3867      3864      3862      3865      3868
      3865      3862      3860      3870      3865      3868      3870      3871
      3865      3868      3870      3875      3865      3868      3894      3895
      3865      3868      3894      3896      3865      3868      3894      3900
      3866      3865      3868      3869      3866      3865      3868      3870
      3866      3865      3868      3894      3867      3865      3868      3869
      3867      3865      3868      3870      3867      3865      3868      3894
      3868      3870      3871      3872      3868      3870      3871      3873
      3868      3870      3871      3874      3868      3870      3875      3876
      3868      3870      3875      3877      3868      3870      3875      3878
      3868      3894      3896      3897      3868      3894      3896      3898
      3868      3894      3896      3899      3868      3894      3900      3901
      3868      3894      3900      3902      3868      3894      3900      3903
      3869      3868      3870      3871      3869      3868      3870      3875
      3869      3868      3894      3895      3869      3868      3894      3896
      3869      3868      3894      3900      3870      3860      3858      3881
      3870      3868      3894      3895      3870      3868      3894      3896
      3870      3868      3894      3900      3870      3875      3878      3879
      3870      3875      3878      3880      3870      3875      3878      3881
      3871      3870      3868      3894      3871      3870      3875      3876
      3871      3870      3875      3877      3871      3870      3875      3878
      3872      3871      3870      3875      3873      3871      3870      3875
      3874      3871      3870      3875      3875      3870      3868      3894
      3875      3878      3881      3882      3875      3878      3881      3883
      3876      3875      3878      3879      3876      3875      3878      3880
      3876      3875      3878      3881      3877      3875      3878      3879
      3877      3875      3878      3880      3877      3875      3878      3881
      3878      3881      3883      3884      3878      3881      3883      3888
      3879      3878      3881      3882      3879      3878      3881      3883
      3880      3878      3881      3882      3880      3878      3881      3883
      3881      3883      3884      3885      3881      3883      3884      3886
      3881      3883      3884      3887      3881      3883      3888      3889
      3881      3883      3888      3890      3881      3883      3888      3891
      3882      3881      3883      3884      3882      3881      3883      3888
      3883      3888      3891      3892      3883      3888      3891      3893
      3884      3883      3888      3889      3884      3883      3888      3890
      3884      3883      3888      3891      3885      3884      3883      3888
      3886      3884      3883      3888      3887      3884      3883      3888
      3889      3888      3891      3892      3889      3888      3891      3893
      3890      3888      3891      3892      3890      3888      3891      3893
      3894      3900      3903      3904      3894      3900      3903      3905
      3894      3900      3903      3906      3895      3894      3896      3897
      3895      3894      3896      3898      3895      3894      3896      3899
      3895      3894      3900      3901      3895      3894      3900      3902
      3895      3894      3900      3903      3896      3894      3900      3901
      3896      3894      3900      3902      3896      3894      3900      3903
      3897      3896      3894      3900      3898      3896      3894      3900
      3899      3896      3894      3900      3900      3903      3906      3907
      3900      3903      3906      3908      3900      3903      3906      3909
      3901      3900      3903      3904      3901      3900      3903      3905
      3901      3900      3903      3906      3902      3900      3903      3904
      3902      3900      3903      3905      3902      3900      3903      3906
      3903      3906      3909      3910      3903      3906      3909      3911
      3903      3906      3909      3915      3904      3903      3906      3907
      3904      3903      3906      3908      3904      3903      3906      3909
      3905      3903      3906      3907      3905      3903      3906      3908
      3905      3903      3906      3909      3906      3909      3911      3912
      3906      3909      3911      3913      3906      3909      3911      3914
      3906      3909      3915      3916      3906      3909      3915      3917
      3906      3909      3915      3918      3907      3906      3909      3910
      3907      3906      3909      3911      3907      3906      3909      3915
      3908      3906      3909      3910      3908      3906      3909      3911
      3908      3906      3909      3915      3910      3909      3911      3912
      3910      3909      3911      3913      3910      3909      3911      3914
      3910      3909      3915      3916      3910      3909      3915      3917
      3910      3909      3915      3918      3911      3909      3915      3916
      3911      3909      3915      3917      3911      3909      3915      3918
      3912      3911      3909      3915      3913      3911      3909      3915
      3914      3911      3909      3915     16869     16873     16876     16877
     16869     16873     16876     16878     16869     16873     16876     16882
     16870     16869     16873     16874     16870     16869     16873     16875
     16870     16869     16873     16876     16871     16869     16873     16874
     16871     16869     16873     16875     16871     16869     16873     16876
     16872     16869     16873     16874     16872     16869     16873     16875
     16872     16869     16873     16876     16873     16876     16882     16879
     16874     16873     16876     16877     16874     16873     16876     16878
     16874     16873     16876     16882     16875     16873     16876     16877
     16875     16873     16876     16878     16875     16873     16876     16882
     16876     16882     16879     16880     16876     16882     16879     16881
     16876     16882     16879     16883     16877     16876     16882     16879
     16878     16876     16882     16879     16879     16883     16884     16885
     16879     16883     16884     16886     16879     16883     16884     16887
     16880     16879     16883     16884     16881     16879     16883     16884
     16882     16879     16883     16884     16883     16884     16887     16888
     16883     16884     16887     16889     16883     16884     16887     16895
     16884     16887     16889     16890     16884     16887     16895     16896
     16884     16887     16895     16897     16884     16887     16895     16898
     16885     16884     16887     16888     16885     16884     16887     16889
     16885     16884     16887     16895     16886     16884     16887     16888
     16886     16884     16887     16889     16886     16884     16887     16895
     16887     16889     16890     16891     16887     16889     16890     16892
     16887     16895     16898     16899     16888     16887     16889     16890
     16888     16887     16895     16896     16888     16887     16895     16897
     16888     16887     16895     16898     16889     16887     16895     16896
     16889     16887     16895     16897     16889     16887     16895     16898
     16889     16890     16892     16893     16889     16890     16892     16894
     16889     16890     16892     16904     16890     16889     16887     16895
     16890     16892     16904     16905     16890     16892     16904     16906
     16890     16892     16904     16907     16891     16890     16892     16893
     16891     16890     16892     16894     16891     16890     16892     16904
     16892     16904     16907     16908     16892     16904     16907     16909
     16892     16904     16907     16910     16893     16892     16904     16905
     16893     16892     16904     16906     16893     16892     16904     16907
     16894     16892     16904     16905     16894     16892     16904     16906
     16894     16892     16904     16907     16895     16898     16899     16900
     16895     16898     16899     16901     16896     16895     16898     16899
     16897     16895     16898     16899     16898     16899     16901     16902
     16898     16899     16901     16903     16898     16899     16901     16951
     16899     16901     16951     16952     16899     16901     16951     16953
     16899     16901     16951     16954     16900     16899     16901     16902
     16900     16899     16901     16903     16900     16899     16901     16951
     16901     16951     16954     16955     16901     16951     16954     16956
     16901     16951     16954     16957     16902     16901     16951     16952
     16902     16901     16951     16953     16902     16901     16951     16954
     16903     16901     16951     16952     16903     16901     16951     16953
     16903     16901     16951     16954     16904     16907     16910     16911
     16904     16907     16910     16912     16905     16904     16907     16908
     16905     16904     16907     16909     16905     16904     16907     16910
     16906     16904     16907     16908     16906     16904     16907     16909
     16906     16904     16907     16910     16907     16910     16912     16913
     16907     16910     16912     16914     16908     16907     16910     16911
     16908     16907     16910     16912     16909     16907     16910     16911
     16909     16907     16910     16912     16910     16912     16914     16915
     16910     16912     16914     16916     16910     16912     16914     16917
     16911     16910     16912     16913     16911     16910     16912     16914
     16912     16914     16917     16918     16912     16914     16917     16919
     16913     16912     16914     16915     16913     16912     16914     16916
     16913     16912     16914     16917     16914     16917     16919     16920
     16914     16917     16919     16921     16915     16914     16917     16918
     16915     16914     16917     16919     16916     16914     16917     16918
     16916     16914     16917     16919     16917     16919     16921     16922
     16917     16919     16921     16923     16917     16919     16921     16924
     16918     16917     16919     16920     16918     16917     16919     16921
     16919     16921     16924     16925     16919     16921     16924     16926
     16920     16919     16921     16922     16920     16919     16921     16923
     16920     16919     16921     16924     16921     16924     16926     16927
     16921     16924     16926     16928     16922     16921     16924     16925
     16922     16921     16924     16926     16923     16921     16924     16925
     16923     16921     16924     16926     16924     16926     16928     16929
     16924     16926     16928     16930     16924     16926     16928     16931
     16925     16924     16926     16927     16925     16924     16926     16928
     16926     16928     16931     16932     16926     16928     16931     16933
     16927     16926     16928     16929     16927     16926     16928     16930
     16927     16926     16928     16931     16928     16931     16933     16934
     16928     16931     16933     16935     16929     16928     16931     16932
     16929     16928     16931     16933     16930     16928     16931     16932
     16930     16928     16931     16933     16931     16933     16935     16936
     16931     16933     16935     16937     16931     16933     16935     16938
     16932     16931     16933     16934     16932     16931     16933     16935
     16933     16935     16938     16939     16933     16935     16938     16940
     16933     16935     16938     16941     16934     16933     16935     16936
     16934     16933     16935     16937     16934     16933     16935     16938
     16935     16938     16941     16942     16935     16938     16941     16943
     16935     16938     16941     16944     16936     16935     16938     16939
     16936     16935     16938     16940     16936     16935     16938     16941
     16937     16935     16938     16939     16937     16935     16938     16940
     16937     16935     16938     16941     16938     16941     16944     16945
     16938     16941     16944     16946     16938     16941     16944     16947
     16939     16938     16941     16942     16939     16938     16941     16943
     16939     16938     16941     16944     16940     16938     16941     16942
     16940     16938     16941     16943     16940     16938     16941     16944
     16941     16944     16947     16948     16941     16944     16947     16949
     16941     16944     16947     16950     16942     16941     16944     16945
     16942     16941     16944     16946     16942     16941     16944     16947
     16943     16941     16944     16945     16943     16941     16944     16946
     16943     16941     16944     16947     16945     16944     16947     16948
     16945     16944     16947     16949     16945     16944     16947     16950
     16946     16944     16947     16948     16946     16944     16947     16949
     16946     16944     16947     16950     16951     16954     16957     16958
     16951     16954     16957     16959     16951     16954     16957     16960
     16952     16951     16954     16955     16952     16951     16954     16956
     16952     16951     16954     16957     16953     16951     16954     16955
     16953     16951     16954     16956     16953     16951     16954     16957
     16954     16957     16960     16961     16954     16957     16960     16962
     16954     16957     16960     16963     16955     16954     16957     16958
     16955     16954     16957     16959     16955     16954     16957     16960
     16956     16954     16957     16958     16956     16954     16957     16959
     16956     16954     16957     16960     16957     16960     16963     16964
     16957     16960     16963     16965     16957     16960     16963     16966
     16958     16957     16960     16961     16958     16957     16960     16962
     16958     16957     16960     16963     16959     16957     16960     16961
     16959     16957     16960     16962     16959     16957     16960     16963
     16960     16963     16966     16967     16960     16963     16966     16968
     16960     16963     16966     16969     16961     16960     16963     16964
     16961     16960     16963     16965     16961     16960     16963     16966
     16962     16960     16963     16964     16962     16960     16963     16965
     16962     16960     16963     16966     16963     16966     16969     16970
     16963     16966     16969     16971     16963     16966     16969     16972
     16964     16963     16966     16967     16964     16963     16966     16968
     16964     16963     16966     16969     16965     16963     16966     16967
     16965     16963     16966     16968     16965     16963     16966     16969
     16966     16969     16972     16973     16966     16969     16972     16974
     16966     16969     16972     16975     16967     16966     16969     16970
     16967     16966     16969     16971     16967     16966     16969     16972
     16968     16966     16969     16970     16968     16966     16969     16971
     16968     16966     16969     16972     16969     16972     16975     16976
     16969     16972     16975     16977     16969     16972     16975     16978
     16970     16969     16972     16973     16970     16969     16972     16974
     16970     16969     16972     16975     16971     16969     16972     16973
     16971     16969     16972     16974     16971     16969     16972     16975
     16972     16975     16978     16979     16972     16975     16978     16980
     16972     16975     16978     16981     16973     16972     16975     16976
     16973     16972     16975     16977     16973     16972     16975     16978
     16974     16972     16975     16976     16974     16972     16975     16977
     16974     16972     16975     16978     16975     16978     16981     16982
     16975     16978     16981     16983     16975     16978     16981     16984
     16976     16975     16978     16979     16976     16975     16978     16980
     16976     16975     16978     16981     16977     16975     16978     16979
     16977     16975     16978     16980     16977     16975     16978     16981
     16978     16981     16984     16985     16978     16981     16984     16986
     16978     16981     16984     16987     16979     16978     16981     16982
     16979     16978     16981     16983     16979     16978     16981     16984
     16980     16978     16981     16982     16980     16978     16981     16983
     16980     16978     16981     16984     16981     16984     16987     16988
     16981     16984     16987     16989     16981     16984     16987     16990
     16982     16981     16984     16985     16982     16981     16984     16986
     16982     16981     16984     16987     16983     16981     16984     16985
     16983     16981     16984     16986     16983     16981     16984     16987
     16984     16987     16990     16991     16984     16987     16990     16992
     16984     16987     16990     16993     16985     16984     16987     16988
     16985     16984     16987     16989     16985     16984     16987     16990
     16986     16984     16987     16988     16986     16984     16987     16989
     16986     16984     16987     16990     16987     16990     16993     16994
     16987     16990     16993     16995     16987     16990     16993     16996
     16988     16987     16990     16991     16988     16987     16990     16992
     16988     16987     16990     16993     16989     16987     16990     16991
     16989     16987     16990     16992     16989     16987     16990     16993
     16990     16993     16996     16997     16990     16993     16996     16998
     16990     16993     16996     16999     16991     16990     16993     16994
     16991     16990     16993     16995     16991     16990     16993     16996
     16992     16990     16993     16994     16992     16990     16993     16995
     16992     16990     16993     16996     16994     16993     16996     16997
     16994     16993     16996     16998     16994     16993     16996     16999
     16995     16993     16996     16997     16995     16993     16996     16998
     16995     16993     16996     16999      3919      3923      3926      3927
      3919      3923      3926      3957      3919      3965      3962      3957
      3919      3965      3962      3963      3919      3965      3962      3964
      3920      3919      3921      3922      3920      3919      3923      3924
      3920      3919      3923      3925      3920      3919      3923      3926
      3920      3919      3965      3962      3920      3919      3965      3966
      3920      3919      3965      3967      3921      3919      3923      3924
      3921      3919      3923      3925      3921      3919      3923      3926
      3921      3919      3965      3962      3921      3919      3965      3966
      3921      3919      3965      3967      3922      3921      3919      3923
      3922      3921      3919      3965      3923      3919      3965      3962
      3923      3919      3965      3966      3923      3919      3965      3967
      3923      3926      3927      3928      3923      3926      3927      3929
      3923      3926      3957      3955      3923      3926      3957      3958
      3923      3926      3957      3962      3924      3923      3919      3965
      3924      3923      3926      3927      3924      3923      3926      3957
      3925      3923      3919      3965      3925      3923      3926      3927
      3925      3923      3926      3957      3926      3923      3919      3965
      3926      3927      3929      3930      3926      3927      3929      3931
      3926      3927      3929      3932      3926      3957      3955      3932
      3926      3957      3955      3952      3926      3957      3955      3956
      3926      3957      3958      3959      3926      3957      3958      3960
      3926      3957      3958      3961      3926      3957      3962      3963
      3926      3957      3962      3964      3926      3957      3962      3965
      3927      3926      3957      3955      3927      3926      3957      3958
      3927      3926      3957      3962      3927      3929      3932      3933
      3927      3929      3932      3934      3927      3929      3932      3955
      3928      3927      3926      3957      3928      3927      3929      3930
      3928      3927      3929      3931      3928      3927      3929      3932
      3929      3927      3926      3957      3929      3932      3934      3935
      3929      3932      3934      3936      3929      3932      3934      3944
      3929      3932      3955      3952      3929      3932      3955      3956
      3929      3932      3955      3957      3930      3929      3932      3933
      3930      3929      3932      3934      3930      3929      3932      3955
      3931      3929      3932      3933      3931      3929      3932      3934
      3931      3929      3932      3955      3932      3934      3936      3937
      3932      3934      3936      3938      3932      3934      3936      3939
      3932      3934      3944      3942      3932      3934      3944      3945
      3932      3934      3944      3949      3932      3955      3952      3949
      3932      3955      3952      3953      3932      3955      3952      3954
      3932      3955      3957      3958      3932      3955      3957      3962
      3933      3932      3934      3935      3933      3932      3934      3936
      3933      3932      3934      3944      3933      3932      3955      3952
      3933      3932      3955      3956      3933      3932      3955      3957
      3934      3932      3955      3952      3934      3932      3955      3956
      3934      3932      3955      3957      3934      3936      3939      3940
      3934      3936      3939      3941      3934      3936      3939      3942
      3934      3944      3942      3939      3934      3944      3942      3943
      3934      3944      3942      3968      3934      3944      3945      3946
      3934      3944      3945      3947      3934      3944      3945      3948
      3934      3944      3949      3950      3934      3944      3949      3951
      3934      3944      3949      3952      3935      3934      3932      3955
      3935      3934      3936      3937      3935      3934      3936      3938
      3935      3934      3936      3939      3935      3934      3944      3942
      3935      3934      3944      3945      3935      3934      3944      3949
      3936      3934      3932      3955      3936      3934      3944      3942
      3936      3934      3944      3945      3936      3934      3944      3949
      3936      3939      3942      3943      3936      3939      3942      3944
      3936      3939      3942      3968      3937      3936      3934      3944
      3937      3936      3939      3940      3937      3936      3939      3941
      3937      3936      3939      3942      3938      3936      3934      3944
      3938      3936      3939      3940      3938      3936      3939      3941
      3938      3936      3939      3942      3939      3936      3934      3944
      3939      3942      3944      3945      3939      3942      3944      3949
      3939      3942      3968      3969      3939      3942      3968      3970
      3939      3942      3968      3974      3940      3939      3942      3943
      3940      3939      3942      3944      3940      3939      3942      3968
      3941      3939      3942      3943      3941      3939      3942      3944
      3941      3939      3942      3968      3942      3944      3945      3946
      3942      3944      3945      3947      3942      3944      3945      3948
      3942      3944      3949      3950      3942      3944      3949      3951
      3942      3944      3949      3952      3942      3968      3970      3971
      3942      3968      3970      3972      3942      3968      3970      3973
      3942      3968      3974      3975      3942      3968      3974      3976
      3942      3968      3974      3977      3943      3942      3944      3945
      3943      3942      3944      3949      3943      3942      3968      3969
      3943      3942      3968      3970      3943      3942      3968      3974
      3944      3934      3932      3955      3944      3942      3968      3969
      3944      3942      3968      3970      3944      3942      3968      3974
      3944      3949      3952      3953      3944      3949      3952      3954
      3944      3949      3952      3955      3945      3944      3942      3968
      3945      3944      3949      3950      3945      3944      3949      3951
      3945      3944      3949      3952      3946      3945      3944      3949
      3947      3945      3944      3949      3948      3945      3944      3949
      3949      3944      3942      3968      3949      3952      3955      3956
      3949      3952      3955      3957      3950      3949      3952      3953
      3950      3949      3952      3954      3950      3949      3952      3955
      3951      3949      3952      3953      3951      3949      3952      3954
      3951      3949      3952      3955      3952      3955      3957      3958
      3952      3955      3957      3962      3953      3952      3955      3956
      3953      3952      3955      3957      3954      3952      3955      3956
      3954      3952      3955      3957      3955      3957      3958      3959
      3955      3957      3958      3960      3955      3957      3958      3961
      3955      3957      3962      3963      3955      3957      3962      3964
      3955      3957      3962      3965      3956      3955      3957      3958
      3956      3955      3957      3962      3957      3962      3965      3966
      3957      3962      3965      3967      3958      3957      3962      3963
      3958      3957      3962      3964      3958      3957      3962      3965
      3959      3958      3957      3962      3960      3958      3957      3962
      3961      3958      3957      3962      3963      3962      3965      3966
      3963      3962      3965      3967      3964      3962      3965      3966
      3964      3962      3965      3967      3968      3974      3977      3978
      3968      3974      3977      3979      3968      3974      3977      3980
      3969      3968      3970      3971      3969      3968      3970      3972
      3969      3968      3970      3973      3969      3968      3974      3975
      3969      3968      3974      3976      3969      3968      3974      3977
      3970      3968      3974      3975      3970      3968      3974      3976
      3970      3968      3974      3977      3971      3970      3968      3974
      3972      3970      3968      3974      3973      3970      3968      3974
      3974      3977      3980      3981      3974      3977      3980      3982
      3974      3977      3980      3983      3975      3974      3977      3978
      3975      3974      3977      3979      3975      3974      3977      3980
      3976      3974      3977      3978      3976      3974      3977      3979
      3976      3974      3977      3980      3977      3980      3983      3984
      3977      3980      3983      3985      3977      3980      3983      3989
      3978      3977      3980      3981      3978      3977      3980      3982
      3978      3977      3980      3983      3979      3977      3980      3981
      3979      3977      3980      3982      3979      3977      3980      3983
      3980      3983      3985      3986      3980      3983      3985      3987
      3980      3983      3985      3988      3980      3983      3989      3990
      3980      3983      3989      3991      3980      3983      3989      3992
      3981      3980      3983      3984      3981      3980      3983      3985
      3981      3980      3983      3989      3982      3980      3983      3984
      3982      3980      3983      3985      3982      3980      3983      3989
      3984      3983      3985      3986      3984      3983      3985      3987
      3984      3983      3985      3988      3984      3983      3989      3990
      3984      3983      3989      3991      3984      3983      3989      3992
      3985      3983      3989      3990      3985      3983      3989      3991
      3985      3983      3989      3992      3986      3985      3983      3989
      3987      3985      3983      3989      3988      3985      3983      3989
     11367     11380     11383     11384     11367     11380     11383     11385
     11367     11380     11383     11390     11368     11367     11372     11373
     11368     11367     11372     11374     11368     11367     11372     11375
     11368     11367     11376     11377     11368     11367     11376     11378
     11368     11367     11376     11379     11368     11367     11380     11381
     11368     11367     11380     11382     11368     11367     11380     11383
     11369     11368     11367     11372     11369     11368     11367     11376
     11369     11368     11367     11380     11370     11368     11367     11372
     11370     11368     11367     11376     11370     11368     11367     11380
     11371     11368     11367     11372     11371     11368     11367     11376
     11371     11368     11367     11380     11372     11367     11376     11377
     11372     11367     11376     11378     11372     11367     11376     11379
     11372     11367     11380     11381     11372     11367     11380     11382
     11372     11367     11380     11383     11373     11372     11367     11376
     11373     11372     11367     11380     11374     11372     11367     11376
     11374     11372     11367     11380     11375     11372     11367     11376
     11375     11372     11367     11380     11376     11367     11380     11381
     11376     11367     11380     11382     11376     11367     11380     11383
     11377     11376     11367     11380     11378     11376     11367     11380
     11379     11376     11367     11380     11380     11383     11390     11386
     11381     11380     11383     11384     11381     11380     11383     11385
     11381     11380     11383     11390     11382     11380     11383     11384
     11382     11380     11383     11385     11382     11380     11383     11390
     11383     11390     11386     11387     11383     11390     11386     11388
     11383     11390     11386     11389     11384     11383     11390     11386
     11385     11383     11390     11386     11386     11389     11391     11392
     11386     11389     11391     11393     11386     11389     11391     11396
     11387     11386     11389     11391     11388     11386     11389     11391
     11389     11391     11396     11394     11389     11391     11396     11397
     11389     11391     11396     11398     11390     11386     11389     11391
     11391     11396     11394     11395     11391     11396     11394     11446
     11391     11396     11398     11399     11391     11396     11398     11400
     11391     11396     11398     11402     11392     11391     11396     11394
     11392     11391     11396     11397     11392     11391     11396     11398
     11393     11391     11396     11394     11393     11391     11396     11397
     11393     11391     11396     11398     11394     11396     11398     11399
     11394     11396     11398     11400     11394     11396     11398     11402
     11394     11446     11448     11449     11394     11446     11448     11450
     11394     11446     11448     11451     11395     11394     11396     11397
     11395     11394     11396     11398     11395     11394     11446     11447
     11395     11394     11446     11448     11396     11394     11446     11447
     11396     11394     11446     11448     11396     11398     11400     11401
     11396     11398     11402     11403     11396     11398     11402     11404
     11397     11396     11394     11446     11397     11396     11398     11399
     11397     11396     11398     11400     11397     11396     11398     11402
     11398     11396     11394     11446     11398     11402     11404     11405
     11398     11402     11404     11406     11399     11398     11400     11401
     11399     11398     11402     11403     11399     11398     11402     11404
     11400     11398     11402     11403     11400     11398     11402     11404
     11401     11400     11398     11402     11402     11404     11406     11407
     11402     11404     11406     11408     11402     11404     11406     11409
     11403     11402     11404     11405     11403     11402     11404     11406
     11404     11406     11409     11410     11404     11406     11409     11411
     11404     11406     11409     11412     11405     11404     11406     11407
     11405     11404     11406     11408     11405     11404     11406     11409
     11406     11409     11412     11413     11406     11409     11412     11414
     11406     11409     11412     11415     11407     11406     11409     11410
     11407     11406     11409     11411     11407     11406     11409     11412
     11408     11406     11409     11410     11408     11406     11409     11411
     11408     11406     11409     11412     11409     11412     11415     11416
     11409     11412     11415     11417     11409     11412     11415     11418
     11410     11409     11412     11413     11410     11409     11412     11414
     11410     11409     11412     11415     11411     11409     11412     11413
     11411     11409     11412     11414     11411     11409     11412     11415
     11412     11415     11418     11419     11412     11415     11418     11420
     11412     11415     11418     11421     11413     11412     11415     11416
     11413     11412     11415     11417     11413     11412     11415     11418
     11414     11412     11415     11416     11414     11412     11415     11417
     11414     11412     11415     11418     11415     11418     11421     11422
     11415     11418     11421     11423     11415     11418     11421     11424
     11416     11415     11418     11419     11416     11415     11418     11420
     11416     11415     11418     11421     11417     11415     11418     11419
     11417     11415     11418     11420     11417     11415     11418     11421
     11418     11421     11424     11425     11418     11421     11424     11426
     11418     11421     11424     11427     11419     11418     11421     11422
     11419     11418     11421     11423     11419     11418     11421     11424
     11420     11418     11421     11422     11420     11418     11421     11423
     11420     11418     11421     11424     11421     11424     11427     11428
     11421     11424     11427     11429     11421     11424     11427     11430
     11422     11421     11424     11425     11422     11421     11424     11426
     11422     11421     11424     11427     11423     11421     11424     11425
     11423     11421     11424     11426     11423     11421     11424     11427
     11424     11427     11430     11431     11424     11427     11430     11432
     11424     11427     11430     11433     11425     11424     11427     11428
     11425     11424     11427     11429     11425     11424     11427     11430
     11426     11424     11427     11428     11426     11424     11427     11429
     11426     11424     11427     11430     11427     11430     11433     11434
     11427     11430     11433     11435     11427     11430     11433     11436
     11428     11427     11430     11431     11428     11427     11430     11432
     11428     11427     11430     11433     11429     11427     11430     11431
     11429     11427     11430     11432     11429     11427     11430     11433
     11430     11433     11436     11437     11430     11433     11436     11438
     11430     11433     11436     11439     11431     11430     11433     11434
     11431     11430     11433     11435     11431     11430     11433     11436
     11432     11430     11433     11434     11432     11430     11433     11435
     11432     11430     11433     11436     11433     11436     11439     11440
     11433     11436     11439     11441     11433     11436     11439     11442
     11434     11433     11436     11437     11434     11433     11436     11438
     11434     11433     11436     11439     11435     11433     11436     11437
     11435     11433     11436     11438     11435     11433     11436     11439
     11436     11439     11442     11443     11436     11439     11442     11444
     11436     11439     11442     11445     11437     11436     11439     11440
     11437     11436     11439     11441     11437     11436     11439     11442
     11438     11436     11439     11440     11438     11436     11439     11441
     11438     11436     11439     11442     11440     11439     11442     11443
     11440     11439     11442     11444     11440     11439     11442     11445
     11441     11439     11442     11443     11441     11439     11442     11444
     11441     11439     11442     11445     11446     11448     11451     11452
     11446     11448     11451     11453     11446     11448     11451     11454
     11447     11446     11448     11449     11447     11446     11448     11450
     11447     11446     11448     11451     11448     11451     11454     11455
     11448     11451     11454     11456     11448     11451     11454     11457
     11449     11448     11451     11452     11449     11448     11451     11453
     11449     11448     11451     11454     11450     11448     11451     11452
     11450     11448     11451     11453     11450     11448     11451     11454
     11451     11454     11457     11458     11451     11454     11457     11459
     11451     11454     11457     11460     11452     11451     11454     11455
     11452     11451     11454     11456     11452     11451     11454     11457
     11453     11451     11454     11455     11453     11451     11454     11456
     11453     11451     11454     11457     11454     11457     11460     11461
     11454     11457     11460     11462     11454     11457     11460     11463
     11455     11454     11457     11458     11455     11454     11457     11459
     11455     11454     11457     11460     11456     11454     11457     11458
     11456     11454     11457     11459     11456     11454     11457     11460
     11457     11460     11463     11464     11457     11460     11463     11465
     11457     11460     11463     11466     11458     11457     11460     11461
     11458     11457     11460     11462     11458     11457     11460     11463
     11459     11457     11460     11461     11459     11457     11460     11462
     11459     11457     11460     11463     11460     11463     11466     11467
     11460     11463     11466     11468     11460     11463     11466     11469
     11461     11460     11463     11464     11461     11460     11463     11465
     11461     11460     11463     11466     11462     11460     11463     11464
     11462     11460     11463     11465     11462     11460     11463     11466
     11463     11466     11469     11470     11463     11466     11469     11471
     11464     11463     11466     11467     11464     11463     11466     11468
     11464     11463     11466     11469     11465     11463     11466     11467
     11465     11463     11466     11468     11465     11463     11466     11469
     11466     11469     11471     11472     11466     11469     11471     11473
     11467     11466     11469     11470     11467     11466     11469     11471
     11468     11466     11469     11470     11468     11466     11469     11471
     11469     11471     11473     11474     11469     11471     11473     11475
     11469     11471     11473     11476     11470     11469     11471     11472
     11470     11469     11471     11473     11471     11473     11476     11477
     11471     11473     11476     11478     11471     11473     11476     11479
     11472     11471     11473     11474     11472     11471     11473     11475
     11472     11471     11473     11476     11473     11476     11479     11480
     11473     11476     11479     11481     11473     11476     11479     11482
     11474     11473     11476     11477     11474     11473     11476     11478
     11474     11473     11476     11479     11475     11473     11476     11477
     11475     11473     11476     11478     11475     11473     11476     11479
     11476     11479     11482     11483     11476     11479     11482     11484
     11476     11479     11482     11485     11477     11476     11479     11480
     11477     11476     11479     11481     11477     11476     11479     11482
     11478     11476     11479     11480     11478     11476     11479     11481
     11478     11476     11479     11482     11479     11482     11485     11486
     11479     11482     11485     11487     11479     11482     11485     11488
     11480     11479     11482     11483     11480     11479     11482     11484
     11480     11479     11482     11485     11481     11479     11482     11483
     11481     11479     11482     11484     11481     11479     11482     11485
     11482     11485     11488     11489     11482     11485     11488     11490
     11482     11485     11488     11491     11483     11482     11485     11486
     11483     11482     11485     11487     11483     11482     11485     11488
     11484     11482     11485     11486     11484     11482     11485     11487
     11484     11482     11485     11488     11485     11488     11491     11492
     11485     11488     11491     11493     11485     11488     11491     11494
     11486     11485     11488     11489     11486     11485     11488     11490
     11486     11485     11488     11491     11487     11485     11488     11489
     11487     11485     11488     11490     11487     11485     11488     11491
     11488     11491     11494     11495     11488     11491     11494     11496
     11488     11491     11494     11497     11489     11488     11491     11492
     11489     11488     11491     11493     11489     11488     11491     11494
     11490     11488     11491     11492     11490     11488     11491     11493
     11490     11488     11491     11494     11492     11491     11494     11495
     11492     11491     11494     11496     11492     11491     11494     11497
     11493     11491     11494     11495     11493     11491     11494     11496
     11493     11491     11494     11497     11498     11511     11514     11515
     11498     11511     11514     11516     11498     11511     11514     11521
     11499     11498     11503     11504     11499     11498     11503     11505
     11499     11498     11503     11506     11499     11498     11507     11508
     11499     11498     11507     11509     11499     11498     11507     11510
     11499     11498     11511     11512     11499     11498     11511     11513
     11499     11498     11511     11514     11500     11499     11498     11503
     11500     11499     11498     11507     11500     11499     11498     11511
     11501     11499     11498     11503     11501     11499     11498     11507
     11501     11499     11498     11511     11502     11499     11498     11503
     11502     11499     11498     11507     11502     11499     11498     11511
     11503     11498     11507     11508     11503     11498     11507     11509
     11503     11498     11507     11510     11503     11498     11511     11512
     11503     11498     11511     11513     11503     11498     11511     11514
     11504     11503     11498     11507     11504     11503     11498     11511
     11505     11503     11498     11507     11505     11503     11498     11511
     11506     11503     11498     11507     11506     11503     11498     11511
     11507     11498     11511     11512     11507     11498     11511     11513
     11507     11498     11511     11514     11508     11507     11498     11511
     11509     11507     11498     11511     11510     11507     11498     11511
     11511     11514     11521     11517     11512     11511     11514     11515
     11512     11511     11514     11516     11512     11511     11514     11521
     11513     11511     11514     11515     11513     11511     11514     11516
     11513     11511     11514     11521     11514     11521     11517     11518
     11514     11521     11517     11519     11514     11521     11517     11520
     11515     11514     11521     11517     11516     11514     11521     11517
     11517     11520     11522     11523     11517     11520     11522     11524
     11517     11520     11522     11527     11518     11517     11520     11522
     11519     11517     11520     11522     11520     11522     11527     11525
     11520     11522     11527     11528     11520     11522     11527     11529
     11521     11517     11520     11522     11522     11527     11525     11526
     11522     11527     11525     11577     11522     11527     11529     11530
     11522     11527     11529     11531     11522     11527     11529     11533
     11523     11522     11527     11525     11523     11522     11527     11528
     11523     11522     11527     11529     11524     11522     11527     11525
     11524     11522     11527     11528     11524     11522     11527     11529
     11525     11527     11529     11530     11525     11527     11529     11531
     11525     11527     11529     11533     11525     11577     11579     11580
     11525     11577     11579     11581     11525     11577     11579     11582
     11526     11525     11527     11528     11526     11525     11527     11529
     11526     11525     11577     11578     11526     11525     11577     11579
     11527     11525     11577     11578     11527     11525     11577     11579
     11527     11529     11531     11532     11527     11529     11533     11534
     11527     11529     11533     11535     11528     11527     11525     11577
     11528     11527     11529     11530     11528     11527     11529     11531
     11528     11527     11529     11533     11529     11527     11525     11577
     11529     11533     11535     11536     11529     11533     11535     11537
     11530     11529     11531     11532     11530     11529     11533     11534
     11530     11529     11533     11535     11531     11529     11533     11534
     11531     11529     11533     11535     11532     11531     11529     11533
     11533     11535     11537     11538     11533     11535     11537     11539
     11533     11535     11537     11540     11534     11533     11535     11536
     11534     11533     11535     11537     11535     11537     11540     11541
     11535     11537     11540     11542     11535     11537     11540     11543
     11536     11535     11537     11538     11536     11535     11537     11539
     11536     11535     11537     11540     11537     11540     11543     11544
     11537     11540     11543     11545     11537     11540     11543     11546
     11538     11537     11540     11541     11538     11537     11540     11542
     11538     11537     11540     11543     11539     11537     11540     11541
     11539     11537     11540     11542     11539     11537     11540     11543
     11540     11543     11546     11547     11540     11543     11546     11548
     11540     11543     11546     11549     11541     11540     11543     11544
     11541     11540     11543     11545     11541     11540     11543     11546
     11542     11540     11543     11544     11542     11540     11543     11545
     11542     11540     11543     11546     11543     11546     11549     11550
     11543     11546     11549     11551     11543     11546     11549     11552
     11544     11543     11546     11547     11544     11543     11546     11548
     11544     11543     11546     11549     11545     11543     11546     11547
     11545     11543     11546     11548     11545     11543     11546     11549
     11546     11549     11552     11553     11546     11549     11552     11554
     11546     11549     11552     11555     11547     11546     11549     11550
     11547     11546     11549     11551     11547     11546     11549     11552
     11548     11546     11549     11550     11548     11546     11549     11551
     11548     11546     11549     11552     11549     11552     11555     11556
     11549     11552     11555     11557     11549     11552     11555     11558
     11550     11549     11552     11553     11550     11549     11552     11554
     11550     11549     11552     11555     11551     11549     11552     11553
     11551     11549     11552     11554     11551     11549     11552     11555
     11552     11555     11558     11559     11552     11555     11558     11560
     11552     11555     11558     11561     11553     11552     11555     11556
     11553     11552     11555     11557     11553     11552     11555     11558
     11554     11552     11555     11556     11554     11552     11555     11557
     11554     11552     11555     11558     11555     11558     11561     11562
     11555     11558     11561     11563     11555     11558     11561     11564
     11556     11555     11558     11559     11556     11555     11558     11560
     11556     11555     11558     11561     11557     11555     11558     11559
     11557     11555     11558     11560     11557     11555     11558     11561
     11558     11561     11564     11565     11558     11561     11564     11566
     11558     11561     11564     11567     11559     11558     11561     11562
     11559     11558     11561     11563     11559     11558     11561     11564
     11560     11558     11561     11562     11560     11558     11561     11563
     11560     11558     11561     11564     11561     11564     11567     11568
     11561     11564     11567     11569     11561     11564     11567     11570
     11562     11561     11564     11565     11562     11561     11564     11566
     11562     11561     11564     11567     11563     11561     11564     11565
     11563     11561     11564     11566     11563     11561     11564     11567
     11564     11567     11570     11571     11564     11567     11570     11572
     11564     11567     11570     11573     11565     11564     11567     11568
     11565     11564     11567     11569     11565     11564     11567     11570
     11566     11564     11567     11568     11566     11564     11567     11569
     11566     11564     11567     11570     11567     11570     11573     11574
     11567     11570     11573     11575     11567     11570     11573     11576
     11568     11567     11570     11571     11568     11567     11570     11572
     11568     11567     11570     11573     11569     11567     11570     11571
     11569     11567     11570     11572     11569     11567     11570     11573
     11571     11570     11573     11574     11571     11570     11573     11575
     11571     11570     11573     11576     11572     11570     11573     11574
     11572     11570     11573     11575     11572     11570     11573     11576
     11577     11579     11582     11583     11577     11579     11582     11584
     11577     11579     11582     11585     11578     11577     11579     11580
     11578     11577     11579     11581     11578     11577     11579     11582
     11579     11582     11585     11586     11579     11582     11585     11587
     11579     11582     11585     11588     11580     11579     11582     11583
     11580     11579     11582     11584     11580     11579     11582     11585
     11581     11579     11582     11583     11581     11579     11582     11584
     11581     11579     11582     11585     11582     11585     11588     11589
     11582     11585     11588     11590     11582     11585     11588     11591
     11583     11582     11585     11586     11583     11582     11585     11587
     11583     11582     11585     11588     11584     11582     11585     11586
     11584     11582     11585     11587     11584     11582     11585     11588
     11585     11588     11591     11592     11585     11588     11591     11593
     11585     11588     11591     11594     11586     11585     11588     11589
     11586     11585     11588     11590     11586     11585     11588     11591
     11587     11585     11588     11589     11587     11585     11588     11590
     11587     11585     11588     11591     11588     11591     11594     11595
     11588     11591     11594     11596     11588     11591     11594     11597
     11589     11588     11591     11592     11589     11588     11591     11593
     11589     11588     11591     11594     11590     11588     11591     11592
     11590     11588     11591     11593     11590     11588     11591     11594
     11591     11594     11597     11598     11591     11594     11597     11599
     11591     11594     11597     11600     11592     11591     11594     11595
     11592     11591     11594     11596     11592     11591     11594     11597
     11593     11591     11594     11595     11593     11591     11594     11596
     11593     11591     11594     11597     11594     11597     11600     11601
     11594     11597     11600     11602     11595     11594     11597     11598
     11595     11594     11597     11599     11595     11594     11597     11600
     11596     11594     11597     11598     11596     11594     11597     11599
     11596     11594     11597     11600     11597     11600     11602     11603
     11597     11600     11602     11604     11598     11597     11600     11601
     11598     11597     11600     11602     11599     11597     11600     11601
     11599     11597     11600     11602     11600     11602     11604     11605
     11600     11602     11604     11606     11600     11602     11604     11607
     11601     11600     11602     11603     11601     11600     11602     11604
     11602     11604     11607     11608     11602     11604     11607     11609
     11602     11604     11607     11610     11603     11602     11604     11605
     11603     11602     11604     11606     11603     11602     11604     11607
     11604     11607     11610     11611     11604     11607     11610     11612
     11604     11607     11610     11613     11605     11604     11607     11608
     11605     11604     11607     11609     11605     11604     11607     11610
     11606     11604     11607     11608     11606     11604     11607     11609
     11606     11604     11607     11610     11607     11610     11613     11614
     11607     11610     11613     11615     11607     11610     11613     11616
     11608     11607     11610     11611     11608     11607     11610     11612
     11608     11607     11610     11613     11609     11607     11610     11611
     11609     11607     11610     11612     11609     11607     11610     11613
     11610     11613     11616     11617     11610     11613     11616     11618
     11610     11613     11616     11619     11611     11610     11613     11614
     11611     11610     11613     11615     11611     11610     11613     11616
     11612     11610     11613     11614     11612     11610     11613     11615
     11612     11610     11613     11616     11613     11616     11619     11620
     11613     11616     11619     11621     11613     11616     11619     11622
     11614     11613     11616     11617     11614     11613     11616     11618
     11614     11613     11616     11619     11615     11613     11616     11617
     11615     11613     11616     11618     11615     11613     11616     11619
     11616     11619     11622     11623     11616     11619     11622     11624
     11616     11619     11622     11625     11617     11616     11619     11620
     11617     11616     11619     11621     11617     11616     11619     11622
     11618     11616     11619     11620     11618     11616     11619     11621
     11618     11616     11619     11622     11619     11622     11625     11626
     11619     11622     11625     11627     11619     11622     11625     11628
     11620     11619     11622     11623     11620     11619     11622     11624
     11620     11619     11622     11625     11621     11619     11622     11623
     11621     11619     11622     11624     11621     11619     11622     11625
     11623     11622     11625     11626     11623     11622     11625     11627
     11623     11622     11625     11628     11624     11622     11625     11626
     11624     11622     11625     11627     11624     11622     11625     11628
     11629     11642     11645     11646     11629     11642     11645     11647
     11629     11642     11645     11652     11630     11629     11634     11635
     11630     11629     11634     11636     11630     11629     11634     11637
     11630     11629     11638     11639     11630     11629     11638     11640
     11630     11629     11638     11641     11630     11629     11642     11643
     11630     11629     11642     11644     11630     11629     11642     11645
     11631     11630     11629     11634     11631     11630     11629     11638
     11631     11630     11629     11642     11632     11630     11629     11634
     11632     11630     11629     11638     11632     11630     11629     11642
     11633     11630     11629     11634     11633     11630     11629     11638
     11633     11630     11629     11642     11634     11629     11638     11639
     11634     11629     11638     11640     11634     11629     11638     11641
     11634     11629     11642     11643     11634     11629     11642     11644
     11634     11629     11642     11645     11635     11634     11629     11638
     11635     11634     11629     11642     11636     11634     11629     11638
     11636     11634     11629     11642     11637     11634     11629     11638
     11637     11634     11629     11642     11638     11629     11642     11643
     11638     11629     11642     11644     11638     11629     11642     11645
     11639     11638     11629     11642     11640     11638     11629     11642
     11641     11638     11629     11642     11642     11645     11652     11648
     11643     11642     11645     11646     11643     11642     11645     11647
     11643     11642     11645     11652     11644     11642     11645     11646
     11644     11642     11645     11647     11644     11642     11645     11652
     11645     11652     11648     11649     11645     11652     11648     11650
     11645     11652     11648     11651     11646     11645     11652     11648
     11647     11645     11652     11648     11648     11651     11653     11654
     11648     11651     11653     11655     11648     11651     11653     11658
     11649     11648     11651     11653     11650     11648     11651     11653
     11651     11653     11658     11656     11651     11653     11658     11659
     11651     11653     11658     11660     11652     11648     11651     11653
     11653     11658     11656     11657     11653     11658     11656     11708
     11653     11658     11660     11661     11653     11658     11660     11662
     11653     11658     11660     11664     11654     11653     11658     11656
     11654     11653     11658     11659     11654     11653     11658     11660
     11655     11653     11658     11656     11655     11653     11658     11659
     11655     11653     11658     11660     11656     11658     11660     11661
     11656     11658     11660     11662     11656     11658     11660     11664
     11656     11708     11710     11711     11656     11708     11710     11712
     11656     11708     11710     11713     11657     11656     11658     11659
     11657     11656     11658     11660     11657     11656     11708     11709
     11657     11656     11708     11710     11658     11656     11708     11709
     11658     11656     11708     11710     11658     11660     11662     11663
     11658     11660     11664     11665     11658     11660     11664     11666
     11659     11658     11656     11708     11659     11658     11660     11661
     11659     11658     11660     11662     11659     11658     11660     11664
     11660     11658     11656     11708     11660     11664     11666     11667
     11660     11664     11666     11668     11661     11660     11662     11663
     11661     11660     11664     11665     11661     11660     11664     11666
     11662     11660     11664     11665     11662     11660     11664     11666
     11663     11662     11660     11664     11664     11666     11668     11669
     11664     11666     11668     11670     11664     11666     11668     11671
     11665     11664     11666     11667     11665     11664     11666     11668
     11666     11668     11671     11672     11666     11668     11671     11673
     11666     11668     11671     11674     11667     11666     11668     11669
     11667     11666     11668     11670     11667     11666     11668     11671
     11668     11671     11674     11675     11668     11671     11674     11676
     11668     11671     11674     11677     11669     11668     11671     11672
     11669     11668     11671     11673     11669     11668     11671     11674
     11670     11668     11671     11672     11670     11668     11671     11673
     11670     11668     11671     11674     11671     11674     11677     11678
     11671     11674     11677     11679     11671     11674     11677     11680
     11672     11671     11674     11675     11672     11671     11674     11676
     11672     11671     11674     11677     11673     11671     11674     11675
     11673     11671     11674     11676     11673     11671     11674     11677
     11674     11677     11680     11681     11674     11677     11680     11682
     11674     11677     11680     11683     11675     11674     11677     11678
     11675     11674     11677     11679     11675     11674     11677     11680
     11676     11674     11677     11678     11676     11674     11677     11679
     11676     11674     11677     11680     11677     11680     11683     11684
     11677     11680     11683     11685     11677     11680     11683     11686
     11678     11677     11680     11681     11678     11677     11680     11682
     11678     11677     11680     11683     11679     11677     11680     11681
     11679     11677     11680     11682     11679     11677     11680     11683
     11680     11683     11686     11687     11680     11683     11686     11688
     11680     11683     11686     11689     11681     11680     11683     11684
     11681     11680     11683     11685     11681     11680     11683     11686
     11682     11680     11683     11684     11682     11680     11683     11685
     11682     11680     11683     11686     11683     11686     11689     11690
     11683     11686     11689     11691     11683     11686     11689     11692
     11684     11683     11686     11687     11684     11683     11686     11688
     11684     11683     11686     11689     11685     11683     11686     11687
     11685     11683     11686     11688     11685     11683     11686     11689
     11686     11689     11692     11693     11686     11689     11692     11694
     11686     11689     11692     11695     11687     11686     11689     11690
     11687     11686     11689     11691     11687     11686     11689     11692
     11688     11686     11689     11690     11688     11686     11689     11691
     11688     11686     11689     11692     11689     11692     11695     11696
     11689     11692     11695     11697     11689     11692     11695     11698
     11690     11689     11692     11693     11690     11689     11692     11694
     11690     11689     11692     11695     11691     11689     11692     11693
     11691     11689     11692     11694     11691     11689     11692     11695
     11692     11695     11698     11699     11692     11695     11698     11700
     11692     11695     11698     11701     11693     11692     11695     11696
     11693     11692     11695     11697     11693     11692     11695     11698
     11694     11692     11695     11696     11694     11692     11695     11697
     11694     11692     11695     11698     11695     11698     11701     11702
     11695     11698     11701     11703     11695     11698     11701     11704
     11696     11695     11698     11699     11696     11695     11698     11700
     11696     11695     11698     11701     11697     11695     11698     11699
     11697     11695     11698     11700     11697     11695     11698     11701
     11698     11701     11704     11705     11698     11701     11704     11706
     11698     11701     11704     11707     11699     11698     11701     11702
     11699     11698     11701     11703     11699     11698     11701     11704
     11700     11698     11701     11702     11700     11698     11701     11703
     11700     11698     11701     11704     11702     11701     11704     11705
     11702     11701     11704     11706     11702     11701     11704     11707
     11703     11701     11704     11705     11703     11701     11704     11706
     11703     11701     11704     11707     11708     11710     11713     11714
     11708     11710     11713     11715     11708     11710     11713     11716
     11709     11708     11710     11711     11709     11708     11710     11712
     11709     11708     11710     11713     11710     11713     11716     11717
     11710     11713     11716     11718     11710     11713     11716     11719
     11711     11710     11713     11714     11711     11710     11713     11715
     11711     11710     11713     11716     11712     11710     11713     11714
     11712     11710     11713     11715     11712     11710     11713     11716
     11713     11716     11719     11720     11713     11716     11719     11721
     11713     11716     11719     11722     11714     11713     11716     11717
     11714     11713     11716     11718     11714     11713     11716     11719
     11715     11713     11716     11717     11715     11713     11716     11718
     11715     11713     11716     11719     11716     11719     11722     11723
     11716     11719     11722     11724     11716     11719     11722     11725
     11717     11716     11719     11720     11717     11716     11719     11721
     11717     11716     11719     11722     11718     11716     11719     11720
     11718     11716     11719     11721     11718     11716     11719     11722
     11719     11722     11725     11726     11719     11722     11725     11727
     11719     11722     11725     11728     11720     11719     11722     11723
     11720     11719     11722     11724     11720     11719     11722     11725
     11721     11719     11722     11723     11721     11719     11722     11724
     11721     11719     11722     11725     11722     11725     11728     11729
     11722     11725     11728     11730     11722     11725     11728     11731
     11723     11722     11725     11726     11723     11722     11725     11727
     11723     11722     11725     11728     11724     11722     11725     11726
     11724     11722     11725     11727     11724     11722     11725     11728
     11725     11728     11731     11732     11725     11728     11731     11733
     11726     11725     11728     11729     11726     11725     11728     11730
     11726     11725     11728     11731     11727     11725     11728     11729
     11727     11725     11728     11730     11727     11725     11728     11731
     11728     11731     11733     11734     11728     11731     11733     11735
     11729     11728     11731     11732     11729     11728     11731     11733
     11730     11728     11731     11732     11730     11728     11731     11733
     11731     11733     11735     11736     11731     11733     11735     11737
     11731     11733     11735     11738     11732     11731     11733     11734
     11732     11731     11733     11735     11733     11735     11738     11739
     11733     11735     11738     11740     11733     11735     11738     11741
     11734     11733     11735     11736     11734     11733     11735     11737
     11734     11733     11735     11738     11735     11738     11741     11742
     11735     11738     11741     11743     11735     11738     11741     11744
     11736     11735     11738     11739     11736     11735     11738     11740
     11736     11735     11738     11741     11737     11735     11738     11739
     11737     11735     11738     11740     11737     11735     11738     11741
     11738     11741     11744     11745     11738     11741     11744     11746
     11738     11741     11744     11747     11739     11738     11741     11742
     11739     11738     11741     11743     11739     11738     11741     11744
     11740     11738     11741     11742     11740     11738     11741     11743
     11740     11738     11741     11744     11741     11744     11747     11748
     11741     11744     11747     11749     11741     11744     11747     11750
     11742     11741     11744     11745     11742     11741     11744     11746
     11742     11741     11744     11747     11743     11741     11744     11745
     11743     11741     11744     11746     11743     11741     11744     11747
     11744     11747     11750     11751     11744     11747     11750     11752
     11744     11747     11750     11753     11745     11744     11747     11748
     11745     11744     11747     11749     11745     11744     11747     11750
     11746     11744     11747     11748     11746     11744     11747     11749
     11746     11744     11747     11750     11747     11750     11753     11754
     11747     11750     11753     11755     11747     11750     11753     11756
     11748     11747     11750     11751     11748     11747     11750     11752
     11748     11747     11750     11753     11749     11747     11750     11751
     11749     11747     11750     11752     11749     11747     11750     11753
     11750     11753     11756     11757     11750     11753     11756     11758
     11750     11753     11756     11759     11751     11750     11753     11754
     11751     11750     11753     11755     11751     11750     11753     11756
     11752     11750     11753     11754     11752     11750     11753     11755
     11752     11750     11753     11756     11754     11753     11756     11757
     11754     11753     11756     11758     11754     11753     11756     11759
     11755     11753     11756     11757     11755     11753     11756     11758
     11755     11753     11756     11759     11760     11773     11776     11777
     11760     11773     11776     11778     11760     11773     11776     11783
     11761     11760     11765     11766     11761     11760     11765     11767
     11761     11760     11765     11768     11761     11760     11769     11770
     11761     11760     11769     11771     11761     11760     11769     11772
     11761     11760     11773     11774     11761     11760     11773     11775
     11761     11760     11773     11776     11762     11761     11760     11765
     11762     11761     11760     11769     11762     11761     11760     11773
     11763     11761     11760     11765     11763     11761     11760     11769
     11763     11761     11760     11773     11764     11761     11760     11765
     11764     11761     11760     11769     11764     11761     11760     11773
     11765     11760     11769     11770     11765     11760     11769     11771
     11765     11760     11769     11772     11765     11760     11773     11774
     11765     11760     11773     11775     11765     11760     11773     11776
     11766     11765     11760     11769     11766     11765     11760     11773
     11767     11765     11760     11769     11767     11765     11760     11773
     11768     11765     11760     11769     11768     11765     11760     11773
     11769     11760     11773     11774     11769     11760     11773     11775
     11769     11760     11773     11776     11770     11769     11760     11773
     11771     11769     11760     11773     11772     11769     11760     11773
     11773     11776     11783     11779     11774     11773     11776     11777
     11774     11773     11776     11778     11774     11773     11776     11783
     11775     11773     11776     11777     11775     11773     11776     11778
     11775     11773     11776     11783     11776     11783     11779     11780
     11776     11783     11779     11781     11776     11783     11779     11782
     11777     11776     11783     11779     11778     11776     11783     11779
     11779     11782     11784     11785     11779     11782     11784     11786
     11779     11782     11784     11789     11780     11779     11782     11784
     11781     11779     11782     11784     11782     11784     11789     11787
     11782     11784     11789     11790     11782     11784     11789     11791
     11783     11779     11782     11784     11784     11789     11787     11788
     11784     11789     11787     11839     11784     11789     11791     11792
     11784     11789     11791     11793     11784     11789     11791     11795
     11785     11784     11789     11787     11785     11784     11789     11790
     11785     11784     11789     11791     11786     11784     11789     11787
     11786     11784     11789     11790     11786     11784     11789     11791
     11787     11789     11791     11792     11787     11789     11791     11793
     11787     11789     11791     11795     11787     11839     11841     11842
     11787     11839     11841     11843     11787     11839     11841     11844
     11788     11787     11789     11790     11788     11787     11789     11791
     11788     11787     11839     11840     11788     11787     11839     11841
     11789     11787     11839     11840     11789     11787     11839     11841
     11789     11791     11793     11794     11789     11791     11795     11796
     11789     11791     11795     11797     11790     11789     11787     11839
     11790     11789     11791     11792     11790     11789     11791     11793
     11790     11789     11791     11795     11791     11789     11787     11839
     11791     11795     11797     11798     11791     11795     11797     11799
     11792     11791     11793     11794     11792     11791     11795     11796
     11792     11791     11795     11797     11793     11791     11795     11796
     11793     11791     11795     11797     11794     11793     11791     11795
     11795     11797     11799     11800     11795     11797     11799     11801
     11795     11797     11799     11802     11796     11795     11797     11798
     11796     11795     11797     11799     11797     11799     11802     11803
     11797     11799     11802     11804     11797     11799     11802     11805
     11798     11797     11799     11800     11798     11797     11799     11801
     11798     11797     11799     11802     11799     11802     11805     11806
     11799     11802     11805     11807     11799     11802     11805     11808
     11800     11799     11802     11803     11800     11799     11802     11804
     11800     11799     11802     11805     11801     11799     11802     11803
     11801     11799     11802     11804     11801     11799     11802     11805
     11802     11805     11808     11809     11802     11805     11808     11810
     11802     11805     11808     11811     11803     11802     11805     11806
     11803     11802     11805     11807     11803     11802     11805     11808
     11804     11802     11805     11806     11804     11802     11805     11807
     11804     11802     11805     11808     11805     11808     11811     11812
     11805     11808     11811     11813     11805     11808     11811     11814
     11806     11805     11808     11809     11806     11805     11808     11810
     11806     11805     11808     11811     11807     11805     11808     11809
     11807     11805     11808     11810     11807     11805     11808     11811
     11808     11811     11814     11815     11808     11811     11814     11816
     11808     11811     11814     11817     11809     11808     11811     11812
     11809     11808     11811     11813     11809     11808     11811     11814
     11810     11808     11811     11812     11810     11808     11811     11813
     11810     11808     11811     11814     11811     11814     11817     11818
     11811     11814     11817     11819     11811     11814     11817     11820
     11812     11811     11814     11815     11812     11811     11814     11816
     11812     11811     11814     11817     11813     11811     11814     11815
     11813     11811     11814     11816     11813     11811     11814     11817
     11814     11817     11820     11821     11814     11817     11820     11822
     11814     11817     11820     11823     11815     11814     11817     11818
     11815     11814     11817     11819     11815     11814     11817     11820
     11816     11814     11817     11818     11816     11814     11817     11819
     11816     11814     11817     11820     11817     11820     11823     11824
     11817     11820     11823     11825     11817     11820     11823     11826
     11818     11817     11820     11821     11818     11817     11820     11822
     11818     11817     11820     11823     11819     11817     11820     11821
     11819     11817     11820     11822     11819     11817     11820     11823
     11820     11823     11826     11827     11820     11823     11826     11828
     11820     11823     11826     11829     11821     11820     11823     11824
     11821     11820     11823     11825     11821     11820     11823     11826
     11822     11820     11823     11824     11822     11820     11823     11825
     11822     11820     11823     11826     11823     11826     11829     11830
     11823     11826     11829     11831     11823     11826     11829     11832
     11824     11823     11826     11827     11824     11823     11826     11828
     11824     11823     11826     11829     11825     11823     11826     11827
     11825     11823     11826     11828     11825     11823     11826     11829
     11826     11829     11832     11833     11826     11829     11832     11834
     11826     11829     11832     11835     11827     11826     11829     11830
     11827     11826     11829     11831     11827     11826     11829     11832
     11828     11826     11829     11830     11828     11826     11829     11831
     11828     11826     11829     11832     11829     11832     11835     11836
     11829     11832     11835     11837     11829     11832     11835     11838
     11830     11829     11832     11833     11830     11829     11832     11834
     11830     11829     11832     11835     11831     11829     11832     11833
     11831     11829     11832     11834     11831     11829     11832     11835
     11833     11832     11835     11836     11833     11832     11835     11837
     11833     11832     11835     11838     11834     11832     11835     11836
     11834     11832     11835     11837     11834     11832     11835     11838
     11839     11841     11844     11845     11839     11841     11844     11846
     11839     11841     11844     11847     11840     11839     11841     11842
     11840     11839     11841     11843     11840     11839     11841     11844
     11841     11844     11847     11848     11841     11844     11847     11849
     11841     11844     11847     11850     11842     11841     11844     11845
     11842     11841     11844     11846     11842     11841     11844     11847
     11843     11841     11844     11845     11843     11841     11844     11846
     11843     11841     11844     11847     11844     11847     11850     11851
     11844     11847     11850     11852     11844     11847     11850     11853
     11845     11844     11847     11848     11845     11844     11847     11849
     11845     11844     11847     11850     11846     11844     11847     11848
     11846     11844     11847     11849     11846     11844     11847     11850
     11847     11850     11853     11854     11847     11850     11853     11855
     11847     11850     11853     11856     11848     11847     11850     11851
     11848     11847     11850     11852     11848     11847     11850     11853
     11849     11847     11850     11851     11849     11847     11850     11852
     11849     11847     11850     11853     11850     11853     11856     11857
     11850     11853     11856     11858     11850     11853     11856     11859
     11851     11850     11853     11854     11851     11850     11853     11855
     11851     11850     11853     11856     11852     11850     11853     11854
     11852     11850     11853     11855     11852     11850     11853     11856
     11853     11856     11859     11860     11853     11856     11859     11861
     11853     11856     11859     11862     11854     11853     11856     11857
     11854     11853     11856     11858     11854     11853     11856     11859
     11855     11853     11856     11857     11855     11853     11856     11858
     11855     11853     11856     11859     11856     11859     11862     11863
     11856     11859     11862     11864     11857     11856     11859     11860
     11857     11856     11859     11861     11857     11856     11859     11862
     11858     11856     11859     11860     11858     11856     11859     11861
     11858     11856     11859     11862     11859     11862     11864     11865
     11859     11862     11864     11866     11860     11859     11862     11863
     11860     11859     11862     11864     11861     11859     11862     11863
     11861     11859     11862     11864     11862     11864     11866     11867
     11862     11864     11866     11868     11862     11864     11866     11869
     11863     11862     11864     11865     11863     11862     11864     11866
     11864     11866     11869     11870     11864     11866     11869     11871
     11864     11866     11869     11872     11865     11864     11866     11867
     11865     11864     11866     11868     11865     11864     11866     11869
     11866     11869     11872     11873     11866     11869     11872     11874
     11866     11869     11872     11875     11867     11866     11869     11870
     11867     11866     11869     11871     11867     11866     11869     11872
     11868     11866     11869     11870     11868     11866     11869     11871
     11868     11866     11869     11872     11869     11872     11875     11876
     11869     11872     11875     11877     11869     11872     11875     11878
     11870     11869     11872     11873     11870     11869     11872     11874
     11870     11869     11872     11875     11871     11869     11872     11873
     11871     11869     11872     11874     11871     11869     11872     11875
     11872     11875     11878     11879     11872     11875     11878     11880
     11872     11875     11878     11881     11873     11872     11875     11876
     11873     11872     11875     11877     11873     11872     11875     11878
     11874     11872     11875     11876     11874     11872     11875     11877
     11874     11872     11875     11878     11875     11878     11881     11882
     11875     11878     11881     11883     11875     11878     11881     11884
     11876     11875     11878     11879     11876     11875     11878     11880
     11876     11875     11878     11881     11877     11875     11878     11879
     11877     11875     11878     11880     11877     11875     11878     11881
     11878     11881     11884     11885     11878     11881     11884     11886
     11878     11881     11884     11887     11879     11878     11881     11882
     11879     11878     11881     11883     11879     11878     11881     11884
     11880     11878     11881     11882     11880     11878     11881     11883
     11880     11878     11881     11884     11881     11884     11887     11888
     11881     11884     11887     11889     11881     11884     11887     11890
     11882     11881     11884     11885     11882     11881     11884     11886
     11882     11881     11884     11887     11883     11881     11884     11885
     11883     11881     11884     11886     11883     11881     11884     11887
     11885     11884     11887     11888     11885     11884     11887     11889
     11885     11884     11887     11890     11886     11884     11887     11888
     11886     11884     11887     11889     11886     11884     11887     11890
     19765     19778     19781     19782     19765     19778     19781     19783
     19765     19778     19781     19787     19766     19765     19770     19771
     19766     19765     19770     19772     19766     19765     19770     19773
     19766     19765     19774     19775     19766     19765     19774     19776
     19766     19765     19774     19777     19766     19765     19778     19779
     19766     19765     19778     19780     19766     19765     19778     19781
     19767     19766     19765     19770     19767     19766     19765     19774
     19767     19766     19765     19778     19768     19766     19765     19770
     19768     19766     19765     19774     19768     19766     19765     19778
     19769     19766     19765     19770     19769     19766     19765     19774
     19769     19766     19765     19778     19770     19765     19774     19775
     19770     19765     19774     19776     19770     19765     19774     19777
     19770     19765     19778     19779     19770     19765     19778     19780
     19770     19765     19778     19781     19771     19770     19765     19774
     19771     19770     19765     19778     19772     19770     19765     19774
     19772     19770     19765     19778     19773     19770     19765     19774
     19773     19770     19765     19778     19774     19765     19778     19779
     19774     19765     19778     19780     19774     19765     19778     19781
     19775     19774     19765     19778     19776     19774     19765     19778
     19777     19774     19765     19778     19778     19781     19787     19784
     19779     19778     19781     19782     19779     19778     19781     19783
     19779     19778     19781     19787     19780     19778     19781     19782
     19780     19778     19781     19783     19780     19778     19781     19787
     19781     19787     19784     19785     19781     19787     19784     19786
     19781     19787     19784     19788     19782     19781     19787     19784
     19783     19781     19787     19784     19784     19788     19789     19790
     19784     19788     19789     19791     19784     19788     19789     19792
     19785     19784     19788     19789     19786     19784     19788     19789
     19787     19784     19788     19789     19788     19789     19792     19793
     19788     19789     19792     19794     19788     19789     19792     19800
     19789     19792     19794     19795     19789     19792     19800     19801
     19789     19792     19800     19802     19789     19792     19800     19803
     19790     19789     19792     19793     19790     19789     19792     19794
     19790     19789     19792     19800     19791     19789     19792     19793
     19791     19789     19792     19794     19791     19789     19792     19800
     19792     19794     19795     19796     19792     19794     19795     19797
     19792     19800     19803     19804     19793     19792     19794     19795
     19793     19792     19800     19801     19793     19792     19800     19802
     19793     19792     19800     19803     19794     19792     19800     19801
     19794     19792     19800     19802     19794     19792     19800     19803
     19794     19795     19797     19798     19794     19795     19797     19799
     19794     19795     19797     19809     19795     19794     19792     19800
     19795     19797     19809     19810     19795     19797     19809     19811
     19795     19797     19809     19812     19796     19795     19797     19798
     19796     19795     19797     19799     19796     19795     19797     19809
     19797     19809     19812     19813     19797     19809     19812     19814
     19797     19809     19812     19815     19798     19797     19809     19810
     19798     19797     19809     19811     19798     19797     19809     19812
     19799     19797     19809     19810     19799     19797     19809     19811
     19799     19797     19809     19812     19800     19803     19804     19805
     19800     19803     19804     19806     19801     19800     19803     19804
     19802     19800     19803     19804     19803     19804     19806     19807
     19803     19804     19806     19808     19803     19804     19806     19854
     19804     19806     19854     19855     19804     19806     19854     19856
     19804     19806     19854     19857     19805     19804     19806     19807
     19805     19804     19806     19808     19805     19804     19806     19854
     19806     19854     19857     19858     19806     19854     19857     19859
     19806     19854     19857     19860     19807     19806     19854     19855
     19807     19806     19854     19856     19807     19806     19854     19857
     19808     19806     19854     19855     19808     19806     19854     19856
     19808     19806     19854     19857     19809     19812     19815     19816
     19809     19812     19815     19817     19809     19812     19815     19818
     19810     19809     19812     19813     19810     19809     19812     19814
     19810     19809     19812     19815     19811     19809     19812     19813
     19811     19809     19812     19814     19811     19809     19812     19815
     19812     19815     19818     19819     19812     19815     19818     19820
     19812     19815     19818     19821     19813     19812     19815     19816
     19813     19812     19815     19817     19813     19812     19815     19818
     19814     19812     19815     19816     19814     19812     19815     19817
     19814     19812     19815     19818     19815     19818     19821     19822
     19815     19818     19821     19823     19815     19818     19821     19824
     19816     19815     19818     19819     19816     19815     19818     19820
     19816     19815     19818     19821     19817     19815     19818     19819
     19817     19815     19818     19820     19817     19815     19818     19821
     19818     19821     19824     19825     19818     19821     19824     19826
     19818     19821     19824     19827     19819     19818     19821     19822
     19819     19818     19821     19823     19819     19818     19821     19824
     19820     19818     19821     19822     19820     19818     19821     19823
     19820     19818     19821     19824     19821     19824     19827     19828
     19821     19824     19827     19829     19822     19821     19824     19825
     19822     19821     19824     19826     19822     19821     19824     19827
     19823     19821     19824     19825     19823     19821     19824     19826
     19823     19821     19824     19827     19824     19827     19829     19830
     19824     19827     19829     19831     19825     19824     19827     19828
     19825     19824     19827     19829     19826     19824     19827     19828
     19826     19824     19827     19829     19827     19829     19831     19832
     19827     19829     19831     19833     19827     19829     19831     19834
     19828     19827     19829     19830     19828     19827     19829     19831
     19829     19831     19834     19835     19829     19831     19834     19836
     19830     19829     19831     19832     19830     19829     19831     19833
     19830     19829     19831     19834     19831     19834     19836     19837
     19831     19834     19836     19838     19832     19831     19834     19835
     19832     19831     19834     19836     19833     19831     19834     19835
     19833     19831     19834     19836     19834     19836     19838     19839
     19834     19836     19838     19840     19834     19836     19838     19841
     19835     19834     19836     19837     19835     19834     19836     19838
     19836     19838     19841     19842     19836     19838     19841     19843
     19836     19838     19841     19844     19837     19836     19838     19839
     19837     19836     19838     19840     19837     19836     19838     19841
     19838     19841     19844     19845     19838     19841     19844     19846
     19838     19841     19844     19847     19839     19838     19841     19842
     19839     19838     19841     19843     19839     19838     19841     19844
     19840     19838     19841     19842     19840     19838     19841     19843
     19840     19838     19841     19844     19841     19844     19847     19848
     19841     19844     19847     19849     19841     19844     19847     19850
     19842     19841     19844     19845     19842     19841     19844     19846
     19842     19841     19844     19847     19843     19841     19844     19845
     19843     19841     19844     19846     19843     19841     19844     19847
     19844     19847     19850     19851     19844     19847     19850     19852
     19844     19847     19850     19853     19845     19844     19847     19848
     19845     19844     19847     19849     19845     19844     19847     19850
     19846     19844     19847     19848     19846     19844     19847     19849
     19846     19844     19847     19850     19848     19847     19850     19851
     19848     19847     19850     19852     19848     19847     19850     19853
     19849     19847     19850     19851     19849     19847     19850     19852
     19849     19847     19850     19853     19854     19857     19860     19861
     19854     19857     19860     19862     19854     19857     19860     19863
     19855     19854     19857     19858     19855     19854     19857     19859
     19855     19854     19857     19860     19856     19854     19857     19858
     19856     19854     19857     19859     19856     19854     19857     19860
     19857     19860     19863     19864     19857     19860     19863     19865
     19857     19860     19863     19866     19858     19857     19860     19861
     19858     19857     19860     19862     19858     19857     19860     19863
     19859     19857     19860     19861     19859     19857     19860     19862
     19859     19857     19860     19863     19860     19863     19866     19867
     19860     19863     19866     19868     19860     19863     19866     19869
     19861     19860     19863     19864     19861     19860     19863     19865
     19861     19860     19863     19866     19862     19860     19863     19864
     19862     19860     19863     19865     19862     19860     19863     19866
     19863     19866     19869     19870     19863     19866     19869     19871
     19863     19866     19869     19872     19864     19863     19866     19867
     19864     19863     19866     19868     19864     19863     19866     19869
     19865     19863     19866     19867     19865     19863     19866     19868
     19865     19863     19866     19869     19866     19869     19872     19873
     19866     19869     19872     19874     19866     19869     19872     19875
     19867     19866     19869     19870     19867     19866     19869     19871
     19867     19866     19869     19872     19868     19866     19869     19870
     19868     19866     19869     19871     19868     19866     19869     19872
     19869     19872     19875     19876     19869     19872     19875     19877
     19869     19872     19875     19878     19870     19869     19872     19873
     19870     19869     19872     19874     19870     19869     19872     19875
     19871     19869     19872     19873     19871     19869     19872     19874
     19871     19869     19872     19875     19872     19875     19878     19879
     19872     19875     19878     19880     19872     19875     19878     19881
     19873     19872     19875     19876     19873     19872     19875     19877
     19873     19872     19875     19878     19874     19872     19875     19876
     19874     19872     19875     19877     19874     19872     19875     19878
     19875     19878     19881     19882     19875     19878     19881     19883
     19875     19878     19881     19884     19876     19875     19878     19879
     19876     19875     19878     19880     19876     19875     19878     19881
     19877     19875     19878     19879     19877     19875     19878     19880
     19877     19875     19878     19881     19878     19881     19884     19885
     19878     19881     19884     19886     19878     19881     19884     19887
     19879     19878     19881     19882     19879     19878     19881     19883
     19879     19878     19881     19884     19880     19878     19881     19882
     19880     19878     19881     19883     19880     19878     19881     19884
     19881     19884     19887     19888     19881     19884     19887     19889
     19881     19884     19887     19890     19882     19881     19884     19885
     19882     19881     19884     19886     19882     19881     19884     19887
     19883     19881     19884     19885     19883     19881     19884     19886
     19883     19881     19884     19887     19884     19887     19890     19891
     19884     19887     19890     19892     19884     19887     19890     19893
     19885     19884     19887     19888     19885     19884     19887     19889
     19885     19884     19887     19890     19886     19884     19887     19888
     19886     19884     19887     19889     19886     19884     19887     19890
     19887     19890     19893     19894     19887     19890     19893     19895
     19887     19890     19893     19896     19888     19887     19890     19891
     19888     19887     19890     19892     19888     19887     19890     19893
     19889     19887     19890     19891     19889     19887     19890     19892
     19889     19887     19890     19893     19890     19893     19896     19897
     19890     19893     19896     19898     19890     19893     19896     19899
     19891     19890     19893     19894     19891     19890     19893     19895
     19891     19890     19893     19896     19892     19890     19893     19894
     19892     19890     19893     19895     19892     19890     19893     19896
     19893     19896     19899     19900     19893     19896     19899     19901
     19893     19896     19899     19902     19894     19893     19896     19897
     19894     19893     19896     19898     19894     19893     19896     19899
     19895     19893     19896     19897     19895     19893     19896     19898
     19895     19893     19896     19899     19897     19896     19899     19900
     19897     19896     19899     19901     19897     19896     19899     19902
     19898     19896     19899     19900     19898     19896     19899     19901
     19898     19896     19899     19902     19903     19916     19919     19920
     19903     19916     19919     19921     19903     19916     19919     19925
     19904     19903     19908     19909     19904     19903     19908     19910
     19904     19903     19908     19911     19904     19903     19912     19913
     19904     19903     19912     19914     19904     19903     19912     19915
     19904     19903     19916     19917     19904     19903     19916     19918
     19904     19903     19916     19919     19905     19904     19903     19908
     19905     19904     19903     19912     19905     19904     19903     19916
     19906     19904     19903     19908     19906     19904     19903     19912
     19906     19904     19903     19916     19907     19904     19903     19908
     19907     19904     19903     19912     19907     19904     19903     19916
     19908     19903     19912     19913     19908     19903     19912     19914
     19908     19903     19912     19915     19908     19903     19916     19917
     19908     19903     19916     19918     19908     19903     19916     19919
     19909     19908     19903     19912     19909     19908     19903     19916
     19910     19908     19903     19912     19910     19908     19903     19916
     19911     19908     19903     19912     19911     19908     19903     19916
     19912     19903     19916     19917     19912     19903     19916     19918
     19912     19903     19916     19919     19913     19912     19903     19916
     19914     19912     19903     19916     19915     19912     19903     19916
     19916     19919     19925     19922     19917     19916     19919     19920
     19917     19916     19919     19921     19917     19916     19919     19925
     19918     19916     19919     19920     19918     19916     19919     19921
     19918     19916     19919     19925     19919     19925     19922     19923
     19919     19925     19922     19924     19919     19925     19922     19926
     19920     19919     19925     19922     19921     19919     19925     19922
     19922     19926     19927     19928     19922     19926     19927     19929
     19922     19926     19927     19930     19923     19922     19926     19927
     19924     19922     19926     19927     19925     19922     19926     19927
     19926     19927     19930     19931     19926     19927     19930     19932
     19926     19927     19930     19938     19927     19930     19932     19933
     19927     19930     19938     19939     19927     19930     19938     19940
     19927     19930     19938     19941     19928     19927     19930     19931
     19928     19927     19930     19932     19928     19927     19930     19938
     19929     19927     19930     19931     19929     19927     19930     19932
     19929     19927     19930     19938     19930     19932     19933     19934
     19930     19932     19933     19935     19930     19938     19941     19942
     19931     19930     19932     19933     19931     19930     19938     19939
     19931     19930     19938     19940     19931     19930     19938     19941
     19932     19930     19938     19939     19932     19930     19938     19940
     19932     19930     19938     19941     19932     19933     19935     19936
     19932     19933     19935     19937     19932     19933     19935     19947
     19933     19932     19930     19938     19933     19935     19947     19948
     19933     19935     19947     19949     19933     19935     19947     19950
     19934     19933     19935     19936     19934     19933     19935     19937
     19934     19933     19935     19947     19935     19947     19950     19951
     19935     19947     19950     19952     19935     19947     19950     19953
     19936     19935     19947     19948     19936     19935     19947     19949
     19936     19935     19947     19950     19937     19935     19947     19948
     19937     19935     19947     19949     19937     19935     19947     19950
     19938     19941     19942     19943     19938     19941     19942     19944
     19939     19938     19941     19942     19940     19938     19941     19942
     19941     19942     19944     19945     19941     19942     19944     19946
     19941     19942     19944     19992     19942     19944     19992     19993
     19942     19944     19992     19994     19942     19944     19992     19995
     19943     19942     19944     19945     19943     19942     19944     19946
     19943     19942     19944     19992     19944     19992     19995     19996
     19944     19992     19995     19997     19944     19992     19995     19998
     19945     19944     19992     19993     19945     19944     19992     19994
     19945     19944     19992     19995     19946     19944     19992     19993
     19946     19944     19992     19994     19946     19944     19992     19995
     19947     19950     19953     19954     19947     19950     19953     19955
     19947     19950     19953     19956     19948     19947     19950     19951
     19948     19947     19950     19952     19948     19947     19950     19953
     19949     19947     19950     19951     19949     19947     19950     19952
     19949     19947     19950     19953     19950     19953     19956     19957
     19950     19953     19956     19958     19950     19953     19956     19959
     19951     19950     19953     19954     19951     19950     19953     19955
     19951     19950     19953     19956     19952     19950     19953     19954
     19952     19950     19953     19955     19952     19950     19953     19956
     19953     19956     19959     19960     19953     19956     19959     19961
     19953     19956     19959     19962     19954     19953     19956     19957
     19954     19953     19956     19958     19954     19953     19956     19959
     19955     19953     19956     19957     19955     19953     19956     19958
     19955     19953     19956     19959     19956     19959     19962     19963
     19956     19959     19962     19964     19956     19959     19962     19965
     19957     19956     19959     19960     19957     19956     19959     19961
     19957     19956     19959     19962     19958     19956     19959     19960
     19958     19956     19959     19961     19958     19956     19959     19962
     19959     19962     19965     19966     19959     19962     19965     19967
     19960     19959     19962     19963     19960     19959     19962     19964
     19960     19959     19962     19965     19961     19959     19962     19963
     19961     19959     19962     19964     19961     19959     19962     19965
     19962     19965     19967     19968     19962     19965     19967     19969
     19963     19962     19965     19966     19963     19962     19965     19967
     19964     19962     19965     19966     19964     19962     19965     19967
     19965     19967     19969     19970     19965     19967     19969     19971
     19965     19967     19969     19972     19966     19965     19967     19968
     19966     19965     19967     19969     19967     19969     19972     19973
     19967     19969     19972     19974     19968     19967     19969     19970
     19968     19967     19969     19971     19968     19967     19969     19972
     19969     19972     19974     19975     19969     19972     19974     19976
     19970     19969     19972     19973     19970     19969     19972     19974
     19971     19969     19972     19973     19971     19969     19972     19974
     19972     19974     19976     19977     19972     19974     19976     19978
     19972     19974     19976     19979     19973     19972     19974     19975
     19973     19972     19974     19976     19974     19976     19979     19980
     19974     19976     19979     19981     19974     19976     19979     19982
     19975     19974     19976     19977     19975     19974     19976     19978
     19975     19974     19976     19979     19976     19979     19982     19983
     19976     19979     19982     19984     19976     19979     19982     19985
     19977     19976     19979     19980     19977     19976     19979     19981
     19977     19976     19979     19982     19978     19976     19979     19980
     19978     19976     19979     19981     19978     19976     19979     19982
     19979     19982     19985     19986     19979     19982     19985     19987
     19979     19982     19985     19988     19980     19979     19982     19983
     19980     19979     19982     19984     19980     19979     19982     19985
     19981     19979     19982     19983     19981     19979     19982     19984
     19981     19979     19982     19985     19982     19985     19988     19989
     19982     19985     19988     19990     19982     19985     19988     19991
     19983     19982     19985     19986     19983     19982     19985     19987
     19983     19982     19985     19988     19984     19982     19985     19986
     19984     19982     19985     19987     19984     19982     19985     19988
     19986     19985     19988     19989     19986     19985     19988     19990
     19986     19985     19988     19991     19987     19985     19988     19989
     19987     19985     19988     19990     19987     19985     19988     19991
     19992     19995     19998     19999     19992     19995     19998     20000
     19992     19995     19998     20001     19993     19992     19995     19996
     19993     19992     19995     19997     19993     19992     19995     19998
     19994     19992     19995     19996     19994     19992     19995     19997
     19994     19992     19995     19998     19995     19998     20001     20002
     19995     19998     20001     20003     19995     19998     20001     20004
     19996     19995     19998     19999     19996     19995     19998     20000
     19996     19995     19998     20001     19997     19995     19998     19999
     19997     19995     19998     20000     19997     19995     19998     20001
     19998     20001     20004     20005     19998     20001     20004     20006
     19998     20001     20004     20007     19999     19998     20001     20002
     19999     19998     20001     20003     19999     19998     20001     20004
     20000     19998     20001     20002     20000     19998     20001     20003
     20000     19998     20001     20004     20001     20004     20007     20008
     20001     20004     20007     20009     20001     20004     20007     20010
     20002     20001     20004     20005     20002     20001     20004     20006
     20002     20001     20004     20007     20003     20001     20004     20005
     20003     20001     20004     20006     20003     20001     20004     20007
     20004     20007     20010     20011     20004     20007     20010     20012
     20004     20007     20010     20013     20005     20004     20007     20008
     20005     20004     20007     20009     20005     20004     20007     20010
     20006     20004     20007     20008     20006     20004     20007     20009
     20006     20004     20007     20010     20007     20010     20013     20014
     20007     20010     20013     20015     20007     20010     20013     20016
     20008     20007     20010     20011     20008     20007     20010     20012
     20008     20007     20010     20013     20009     20007     20010     20011
     20009     20007     20010     20012     20009     20007     20010     20013
     20010     20013     20016     20017     20010     20013     20016     20018
     20010     20013     20016     20019     20011     20010     20013     20014
     20011     20010     20013     20015     20011     20010     20013     20016
     20012     20010     20013     20014     20012     20010     20013     20015
     20012     20010     20013     20016     20013     20016     20019     20020
     20013     20016     20019     20021     20013     20016     20019     20022
     20014     20013     20016     20017     20014     20013     20016     20018
     20014     20013     20016     20019     20015     20013     20016     20017
     20015     20013     20016     20018     20015     20013     20016     20019
     20016     20019     20022     20023     20016     20019     20022     20024
     20016     20019     20022     20025     20017     20016     20019     20020
     20017     20016     20019     20021     20017     20016     20019     20022
     20018     20016     20019     20020     20018     20016     20019     20021
     20018     20016     20019     20022     20019     20022     20025     20026
     20019     20022     20025     20027     20019     20022     20025     20028
     20020     20019     20022     20023     20020     20019     20022     20024
     20020     20019     20022     20025     20021     20019     20022     20023
     20021     20019     20022     20024     20021     20019     20022     20025
     20022     20025     20028     20029     20022     20025     20028     20030
     20022     20025     20028     20031     20023     20022     20025     20026
     20023     20022     20025     20027     20023     20022     20025     20028
     20024     20022     20025     20026     20024     20022     20025     20027
     20024     20022     20025     20028     20025     20028     20031     20032
     20025     20028     20031     20033     20025     20028     20031     20034
     20026     20025     20028     20029     20026     20025     20028     20030
     20026     20025     20028     20031     20027     20025     20028     20029
     20027     20025     20028     20030     20027     20025     20028     20031
     20028     20031     20034     20035     20028     20031     20034     20036
     20028     20031     20034     20037     20029     20028     20031     20032
     20029     20028     20031     20033     20029     20028     20031     20034
     20030     20028     20031     20032     20030     20028     20031     20033
     20030     20028     20031     20034     20031     20034     20037     20038
     20031     20034     20037     20039     20031     20034     20037     20040
     20032     20031     20034     20035     20032     20031     20034     20036
     20032     20031     20034     20037     20033     20031     20034     20035
     20033     20031     20034     20036     20033     20031     20034     20037
     20035     20034     20037     20038     20035     20034     20037     20039
     20035     20034     20037     20040     20036     20034     20037     20038
     20036     20034     20037     20039     20036     20034     20037     20040
      3993      3997      4000      4001      3993      3997      4000      4031
      3993      4039      4036      4031      3993      4039      4036      4037
      3993      4039      4036      4038      3994      3993      3995      3996
      3994      3993      3997      3998      3994      3993      3997      3999
      3994      3993      3997      4000      3994      3993      4039      4036
      3994      3993      4039      4040      3994      3993      4039      4041
      3995      3993      3997      3998      3995      3993      3997      3999
      3995      3993      3997      4000      3995      3993      4039      4036
      3995      3993      4039      4040      3995      3993      4039      4041
      3996      3995      3993      3997      3996      3995      3993      4039
      3997      3993      4039      4036      3997      3993      4039      4040
      3997      3993      4039      4041      3997      4000      4001      4002
      3997      4000      4001      4003      3997      4000      4031      4029
      3997      4000      4031      4032      3997      4000      4031      4036
      3998      3997      3993      4039      3998      3997      4000      4001
      3998      3997      4000      4031      3999      3997      3993      4039
      3999      3997      4000      4001      3999      3997      4000      4031
      4000      3997      3993      4039      4000      4001      4003      4004
      4000      4001      4003      4005      4000      4001      4003      4006
      4000      4031      4029      4006      4000      4031      4029      4026
      4000      4031      4029      4030      4000      4031      4032      4033
      4000      4031      4032      4034      4000      4031      4032      4035
      4000      4031      4036      4037      4000      4031      4036      4038
      4000      4031      4036      4039      4001      4000      4031      4029
      4001      4000      4031      4032      4001      4000      4031      4036
      4001      4003      4006      4007      4001      4003      4006      4008
      4001      4003      4006      4029      4002      4001      4000      4031
      4002      4001      4003      4004      4002      4001      4003      4005
      4002      4001      4003      4006      4003      4001      4000      4031
      4003      4006      4008      4009      4003      4006      4008      4010
      4003      4006      4008      4018      4003      4006      4029      4026
      4003      4006      4029      4030      4003      4006      4029      4031
      4004      4003      4006      4007      4004      4003      4006      4008
      4004      4003      4006      4029      4005      4003      4006      4007
      4005      4003      4006      4008      4005      4003      4006      4029
      4006      4008      4010      4011      4006      4008      4010      4012
      4006      4008      4010      4013      4006      4008      4018      4016
      4006      4008      4018      4019      4006      4008      4018      4023
      4006      4029      4026      4023      4006      4029      4026      4027
      4006      4029      4026      4028      4006      4029      4031      4032
      4006      4029      4031      4036      4007      4006      4008      4009
      4007      4006      4008      4010      4007      4006      4008      4018
      4007      4006      4029      4026      4007      4006      4029      4030
      4007      4006      4029      4031      4008      4006      4029      4026
      4008      4006      4029      4030      4008      4006      4029      4031
      4008      4010      4013      4014      4008      4010      4013      4015
      4008      4010      4013      4016      4008      4018      4016      4013
      4008      4018      4016      4017      4008      4018      4016      4042
      4008      4018      4019      4020      4008      4018      4019      4021
      4008      4018      4019      4022      4008      4018      4023      4024
      4008      4018      4023      4025      4008      4018      4023      4026
      4009      4008      4006      4029      4009      4008      4010      4011
      4009      4008      4010      4012      4009      4008      4010      4013
      4009      4008      4018      4016      4009      4008      4018      4019
      4009      4008      4018      4023      4010      4008      4006      4029
      4010      4008      4018      4016      4010      4008      4018      4019
      4010      4008      4018      4023      4010      4013      4016      4017
      4010      4013      4016      4018      4010      4013      4016      4042
      4011      4010      4008      4018      4011      4010      4013      4014
      4011      4010      4013      4015      4011      4010      4013      4016
      4012      4010      4008      4018      4012      4010      4013      4014
      4012      4010      4013      4015      4012      4010      4013      4016
      4013      4010      4008      4018      4013      4016      4018      4019
      4013      4016      4018      4023      4013      4016      4042      4043
      4013      4016      4042      4044      4013      4016      4042      4048
      4014      4013      4016      4017      4014      4013      4016      4018
      4014      4013      4016      4042      4015      4013      4016      4017
      4015      4013      4016      4018      4015      4013      4016      4042
      4016      4018      4019      4020      4016      4018      4019      4021
      4016      4018      4019      4022      4016      4018      4023      4024
      4016      4018      4023      4025      4016      4018      4023      4026
      4016      4042      4044      4045      4016      4042      4044      4046
      4016      4042      4044      4047      4016      4042      4048      4049
      4016      4042      4048      4050      4016      4042      4048      4051
      4017      4016      4018      4019      4017      4016      4018      4023
      4017      4016      4042      4043      4017      4016      4042      4044
      4017      4016      4042      4048      4018      4008      4006      4029
      4018      4016      4042      4043      4018      4016      4042      4044
      4018      4016      4042      4048      4018      4023      4026      4027
      4018      4023      4026      4028      4018      4023      4026      4029
      4019      4018      4016      4042      4019      4018      4023      4024
      4019      4018      4023      4025      4019      4018      4023      4026
      4020      4019      4018      4023      4021      4019      4018      4023
      4022      4019      4018      4023      4023      4018      4016      4042
      4023      4026      4029      4030      4023      4026      4029      4031
      4024      4023      4026      4027      4024      4023      4026      4028
      4024      4023      4026      4029      4025      4023      4026      4027
      4025      4023      4026      4028      4025      4023      4026      4029
      4026      4029      4031      4032      4026      4029      4031      4036
      4027      4026      4029      4030      4027      4026      4029      4031
      4028      4026      4029      4030      4028      4026      4029      4031
      4029      4031      4032      4033      4029      4031      4032      4034
      4029      4031      4032      4035      4029      4031      4036      4037
      4029      4031      4036      4038      4029      4031      4036      4039
      4030      4029      4031      4032      4030      4029      4031      4036
      4031      4036      4039      4040      4031      4036      4039      4041
      4032      4031      4036      4037      4032      4031      4036      4038
      4032      4031      4036      4039      4033      4032      4031      4036
      4034      4032      4031      4036      4035      4032      4031      4036
      4037      4036      4039      4040      4037      4036      4039      4041
      4038      4036      4039      4040      4038      4036      4039      4041
      4042      4048      4051      4052      4042      4048      4051      4053
      4042      4048      4051      4054      4043      4042      4044      4045
      4043      4042      4044      4046      4043      4042      4044      4047
      4043      4042      4048      4049      4043      4042      4048      4050
      4043      4042      4048      4051      4044      4042      4048      4049
      4044      4042      4048      4050      4044      4042      4048      4051
      4045      4044      4042      4048      4046      4044      4042      4048
      4047      4044      4042      4048      4048      4051      4054      4055
      4048      4051      4054      4056      4048      4051      4054      4057
      4049      4048      4051      4052      4049      4048      4051      4053
      4049      4048      4051      4054      4050      4048      4051      4052
      4050      4048      4051      4053      4050      4048      4051      4054
      4051      4054      4057      4058      4051      4054      4057      4059
      4051      4054      4057      4063      4052      4051      4054      4055
      4052      4051      4054      4056      4052      4051      4054      4057
      4053      4051      4054      4055      4053      4051      4054      4056
      4053      4051      4054      4057      4054      4057      4059      4060
      4054      4057      4059      4061      4054      4057      4059      4062
      4054      4057      4063      4064      4054      4057      4063      4065
      4054      4057      4063      4066      4055      4054      4057      4058
      4055      4054      4057      4059      4055      4054      4057      4063
      4056      4054      4057      4058      4056      4054      4057      4059
      4056      4054      4057      4063      4058      4057      4059      4060
      4058      4057      4059      4061      4058      4057      4059      4062
      4058      4057      4063      4064      4058      4057      4063      4065
      4058      4057      4063      4066      4059      4057      4063      4064
      4059      4057      4063      4065      4059      4057      4063      4066
      4060      4059      4057      4063      4061      4059      4057      4063
      4062      4059      4057      4063      4067      4071      4074      4075
      4067      4071      4074      4105      4067      4113      4110      4105
      4067      4113      4110      4111      4067      4113      4110      4112
      4068      4067      4069      4070      4068      4067      4071      4072
      4068      4067      4071      4073      4068      4067      4071      4074
      4068      4067      4113      4110      4068      4067      4113      4114
      4068      4067      4113      4115      4069      4067      4071      4072
      4069      4067      4071      4073      4069      4067      4071      4074
      4069      4067      4113      4110      4069      4067      4113      4114
      4069      4067      4113      4115      4070      4069      4067      4071
      4070      4069      4067      4113      4071      4067      4113      4110
      4071      4067      4113      4114      4071      4067      4113      4115
      4071      4074      4075      4076      4071      4074      4075      4077
      4071      4074      4105      4103      4071      4074      4105      4106
      4071      4074      4105      4110      4072      4071      4067      4113
      4072      4071      4074      4075      4072      4071      4074      4105
      4073      4071      4067      4113      4073      4071      4074      4075
      4073      4071      4074      4105      4074      4071      4067      4113
      4074      4075      4077      4078      4074      4075      4077      4079
      4074      4075      4077      4080      4074      4105      4103      4080
      4074      4105      4103      4100      4074      4105      4103      4104
      4074      4105      4106      4107      4074      4105      4106      4108
      4074      4105      4106      4109      4074      4105      4110      4111
      4074      4105      4110      4112      4074      4105      4110      4113
      4075      4074      4105      4103      4075      4074      4105      4106
      4075      4074      4105      4110      4075      4077      4080      4081
      4075      4077      4080      4082      4075      4077      4080      4103
      4076      4075      4074      4105      4076      4075      4077      4078
      4076      4075      4077      4079      4076      4075      4077      4080
      4077      4075      4074      4105      4077      4080      4082      4083
      4077      4080      4082      4084      4077      4080      4082      4092
      4077      4080      4103      4100      4077      4080      4103      4104
      4077      4080      4103      4105      4078      4077      4080      4081
      4078      4077      4080      4082      4078      4077      4080      4103
      4079      4077      4080      4081      4079      4077      4080      4082
      4079      4077      4080      4103      4080      4082      4084      4085
      4080      4082      4084      4086      4080      4082      4084      4087
      4080      4082      4092      4090      4080      4082      4092      4093
      4080      4082      4092      4097      4080      4103      4100      4097
      4080      4103      4100      4101      4080      4103      4100      4102
      4080      4103      4105      4106      4080      4103      4105      4110
      4081      4080      4082      4083      4081      4080      4082      4084
      4081      4080      4082      4092      4081      4080      4103      4100
      4081      4080      4103      4104      4081      4080      4103      4105
      4082      4080      4103      4100      4082      4080      4103      4104
      4082      4080      4103      4105      4082      4084      4087      4088
      4082      4084      4087      4089      4082      4084      4087      4090
      4082      4092      4090      4087      4082      4092      4090      4091
      4082      4092      4090      4116      4082      4092      4093      4094
      4082      4092      4093      4095      4082      4092      4093      4096
      4082      4092      4097      4098      4082      4092      4097      4099
      4082      4092      4097      4100      4083      4082      4080      4103
      4083      4082      4084      4085      4083      4082      4084      4086
      4083      4082      4084      4087      4083      4082      4092      4090
      4083      4082      4092      4093      4083      4082      4092      4097
      4084      4082      4080      4103      4084      4082      4092      4090
      4084      4082      4092      4093      4084      4082      4092      4097
      4084      4087      4090      4091      4084      4087      4090      4092
      4084      4087      4090      4116      4085      4084      4082      4092
      4085      4084      4087      4088      4085      4084      4087      4089
      4085      4084      4087      4090      4086      4084      4082      4092
      4086      4084      4087      4088      4086      4084      4087      4089
      4086      4084      4087      4090      4087      4084      4082      4092
      4087      4090      4092      4093      4087      4090      4092      4097
      4087      4090      4116      4117      4087      4090      4116      4118
      4087      4090      4116      4122      4088      4087      4090      4091
      4088      4087      4090      4092      4088      4087      4090      4116
      4089      4087      4090      4091      4089      4087      4090      4092
      4089      4087      4090      4116      4090      4092      4093      4094
      4090      4092      4093      4095      4090      4092      4093      4096
      4090      4092      4097      4098      4090      4092      4097      4099
      4090      4092      4097      4100      4090      4116      4118      4119
      4090      4116      4118      4120      4090      4116      4118      4121
      4090      4116      4122      4123      4090      4116      4122      4124
      4090      4116      4122      4125      4091      4090      4092      4093
      4091      4090      4092      4097      4091      4090      4116      4117
      4091      4090      4116      4118      4091      4090      4116      4122
      4092      4082      4080      4103      4092      4090      4116      4117
      4092      4090      4116      4118      4092      4090      4116      4122
      4092      4097      4100      4101      4092      4097      4100      4102
      4092      4097      4100      4103      4093      4092      4090      4116
      4093      4092      4097      4098      4093      4092      4097      4099
      4093      4092      4097      4100      4094      4093      4092      4097
      4095      4093      4092      4097      4096      4093      4092      4097
      4097      4092      4090      4116      4097      4100      4103      4104
      4097      4100      4103      4105      4098      4097      4100      4101
      4098      4097      4100      4102      4098      4097      4100      4103
      4099      4097      4100      4101      4099      4097      4100      4102
      4099      4097      4100      4103      4100      4103      4105      4106
      4100      4103      4105      4110      4101      4100      4103      4104
      4101      4100      4103      4105      4102      4100      4103      4104
      4102      4100      4103      4105      4103      4105      4106      4107
      4103      4105      4106      4108      4103      4105      4106      4109
      4103      4105      4110      4111      4103      4105      4110      4112
      4103      4105      4110      4113      4104      4103      4105      4106
      4104      4103      4105      4110      4105      4110      4113      4114
      4105      4110      4113      4115      4106      4105      4110      4111
      4106      4105      4110      4112      4106      4105      4110      4113
      4107      4106      4105      4110      4108      4106      4105      4110
      4109      4106      4105      4110      4111      4110      4113      4114
      4111      4110      4113      4115      4112      4110      4113      4114
      4112      4110      4113      4115      4116      4122      4125      4126
      4116      4122      4125      4127      4116      4122      4125      4128
      4117      4116      4118      4119      4117      4116      4118      4120
      4117      4116      4118      4121      4117      4116      4122      4123
      4117      4116      4122      4124      4117      4116      4122      4125
      4118      4116      4122      4123      4118      4116      4122      4124
      4118      4116      4122      4125      4119      4118      4116      4122
      4120      4118      4116      4122      4121      4118      4116      4122
      4122      4125      4128      4129      4122      4125      4128      4130
      4122      4125      4128      4131      4123      4122      4125      4126
      4123      4122      4125      4127      4123      4122      4125      4128
      4124      4122      4125      4126      4124      4122      4125      4127
      4124      4122      4125      4128      4125      4128      4131      4132
      4125      4128      4131      4133      4125      4128      4131      4137
      4126      4125      4128      4129      4126      4125      4128      4130
      4126      4125      4128      4131      4127      4125      4128      4129
      4127      4125      4128      4130      4127      4125      4128      4131
      4128      4131      4133      4134      4128      4131      4133      4135
      4128      4131      4133      4136      4128      4131      4137      4138
      4128      4131      4137      4139      4128      4131      4137      4140
      4129      4128      4131      4132      4129      4128      4131      4133
      4129      4128      4131      4137      4130      4128      4131      4132
      4130      4128      4131      4133      4130      4128      4131      4137
      4132      4131      4133      4134      4132      4131      4133      4135
      4132      4131      4133      4136      4132      4131      4137      4138
      4132      4131      4137      4139      4132      4131      4137      4140
      4133      4131      4137      4138      4133      4131      4137      4139
      4133      4131      4137      4140      4134      4133      4131      4137
      4135      4133      4131      4137      4136      4133      4131      4137
      4141      4145      4148      4149      4141      4145      4148      4179
      4141      4187      4184      4179      4141      4187      4184      4185
      4141      4187      4184      4186      4142      4141      4143      4144
      4142      4141      4145      4146      4142      4141      4145      4147
      4142      4141      4145      4148      4142      4141      4187      4184
      4142      4141      4187      4188      4142      4141      4187      4189
      4143      4141      4145      4146      4143      4141      4145      4147
      4143      4141      4145      4148      4143      4141      4187      4184
      4143      4141      4187      4188      4143      4141      4187      4189
      4144      4143      4141      4145      4144      4143      4141      4187
      4145      4141      4187      4184      4145      4141      4187      4188
      4145      4141      4187      4189      4145      4148      4149      4150
      4145      4148      4149      4151      4145      4148      4179      4177
      4145      4148      4179      4180      4145      4148      4179      4184
      4146      4145      4141      4187      4146      4145      4148      4149
      4146      4145      4148      4179      4147      4145      4141      4187
      4147      4145      4148      4149      4147      4145      4148      4179
      4148      4145      4141      4187      4148      4149      4151      4152
      4148      4149      4151      4153      4148      4149      4151      4154
      4148      4179      4177      4154      4148      4179      4177      4174
      4148      4179      4177      4178      4148      4179      4180      4181
      4148      4179      4180      4182      4148      4179      4180      4183
      4148      4179      4184      4185      4148      4179      4184      4186
      4148      4179      4184      4187      4149      4148      4179      4177
      4149      4148      4179      4180      4149      4148      4179      4184
      4149      4151      4154      4155      4149      4151      4154      4156
      4149      4151      4154      4177      4150      4149      4148      4179
      4150      4149      4151      4152      4150      4149      4151      4153
      4150      4149      4151      4154      4151      4149      4148      4179
      4151      4154      4156      4157      4151      4154      4156      4158
      4151      4154      4156      4166      4151      4154      4177      4174
      4151      4154      4177      4178      4151      4154      4177      4179
      4152      4151      4154      4155      4152      4151      4154      4156
      4152      4151      4154      4177      4153      4151      4154      4155
      4153      4151      4154      4156      4153      4151      4154      4177
      4154      4156      4158      4159      4154      4156      4158      4160
      4154      4156      4158      4161      4154      4156      4166      4164
      4154      4156      4166      4167      4154      4156      4166      4171
      4154      4177      4174      4171      4154      4177      4174      4175
      4154      4177      4174      4176      4154      4177      4179      4180
      4154      4177      4179      4184      4155      4154      4156      4157
      4155      4154      4156      4158      4155      4154      4156      4166
      4155      4154      4177      4174      4155      4154      4177      4178
      4155      4154      4177      4179      4156      4154      4177      4174
      4156      4154      4177      4178      4156      4154      4177      4179
      4156      4158      4161      4162      4156      4158      4161      4163
      4156      4158      4161      4164      4156      4166      4164      4161
      4156      4166      4164      4165      4156      4166      4164      4190
      4156      4166      4167      4168      4156      4166      4167      4169
      4156      4166      4167      4170      4156      4166      4171      4172
      4156      4166      4171      4173      4156      4166      4171      4174
      4157      4156      4154      4177      4157      4156      4158      4159
      4157      4156      4158      4160      4157      4156      4158      4161
      4157      4156      4166      4164      4157      4156      4166      4167
      4157      4156      4166      4171      4158      4156      4154      4177
      4158      4156      4166      4164      4158      4156      4166      4167
      4158      4156      4166      4171      4158      4161      4164      4165
      4158      4161      4164      4166      4158      4161      4164      4190
      4159      4158      4156      4166      4159      4158      4161      4162
      4159      4158      4161      4163      4159      4158      4161      4164
      4160      4158      4156      4166      4160      4158      4161      4162
      4160      4158      4161      4163      4160      4158      4161      4164
      4161      4158      4156      4166      4161      4164      4166      4167
      4161      4164      4166      4171      4161      4164      4190      4191
      4161      4164      4190      4192      4161      4164      4190      4196
      4162      4161      4164      4165      4162      4161      4164      4166
      4162      4161      4164      4190      4163      4161      4164      4165
      4163      4161      4164      4166      4163      4161      4164      4190
      4164      4166      4167      4168      4164      4166      4167      4169
      4164      4166      4167      4170      4164      4166      4171      4172
      4164      4166      4171      4173      4164      4166      4171      4174
      4164      4190      4192      4193      4164      4190      4192      4194
      4164      4190      4192      4195      4164      4190      4196      4197
      4164      4190      4196      4198      4164      4190      4196      4199
      4165      4164      4166      4167      4165      4164      4166      4171
      4165      4164      4190      4191      4165      4164      4190      4192
      4165      4164      4190      4196      4166      4156      4154      4177
      4166      4164      4190      4191      4166      4164      4190      4192
      4166      4164      4190      4196      4166      4171      4174      4175
      4166      4171      4174      4176      4166      4171      4174      4177
      4167      4166      4164      4190      4167      4166      4171      4172
      4167      4166      4171      4173      4167      4166      4171      4174
      4168      4167      4166      4171      4169      4167      4166      4171
      4170      4167      4166      4171      4171      4166      4164      4190
      4171      4174      4177      4178      4171      4174      4177      4179
      4172      4171      4174      4175      4172      4171      4174      4176
      4172      4171      4174      4177      4173      4171      4174      4175
      4173      4171      4174      4176      4173      4171      4174      4177
      4174      4177      4179      4180      4174      4177      4179      4184
      4175      4174      4177      4178      4175      4174      4177      4179
      4176      4174      4177      4178      4176      4174      4177      4179
      4177      4179      4180      4181      4177      4179      4180      4182
      4177      4179      4180      4183      4177      4179      4184      4185
      4177      4179      4184      4186      4177      4179      4184      4187
      4178      4177      4179      4180      4178      4177      4179      4184
      4179      4184      4187      4188      4179      4184      4187      4189
      4180      4179      4184      4185      4180      4179      4184      4186
      4180      4179      4184      4187      4181      4180      4179      4184
      4182      4180      4179      4184      4183      4180      4179      4184
      4185      4184      4187      4188      4185      4184      4187      4189
      4186      4184      4187      4188      4186      4184      4187      4189
      4190      4196      4199      4200      4190      4196      4199      4201
      4190      4196      4199      4202      4191      4190      4192      4193
      4191      4190      4192      4194      4191      4190      4192      4195
      4191      4190      4196      4197      4191      4190      4196      4198
      4191      4190      4196      4199      4192      4190      4196      4197
      4192      4190      4196      4198      4192      4190      4196      4199
      4193      4192      4190      4196      4194      4192      4190      4196
      4195      4192      4190      4196      4196      4199      4202      4203
      4196      4199      4202      4204      4196      4199      4202      4205
      4197      4196      4199      4200      4197      4196      4199      4201
      4197      4196      4199      4202      4198      4196      4199      4200
      4198      4196      4199      4201      4198      4196      4199      4202
      4199      4202      4205      4206      4199      4202      4205      4207
      4199      4202      4205      4211      4200      4199      4202      4203
      4200      4199      4202      4204      4200      4199      4202      4205
      4201      4199      4202      4203      4201      4199      4202      4204
      4201      4199      4202      4205      4202      4205      4207      4208
      4202      4205      4207      4209      4202      4205      4207      4210
      4202      4205      4211      4212      4202      4205      4211      4213
      4202      4205      4211      4214      4203      4202      4205      4206
      4203      4202      4205      4207      4203      4202      4205      4211
      4204      4202      4205      4206      4204      4202      4205      4207
      4204      4202      4205      4211      4206      4205      4207      4208
      4206      4205      4207      4209      4206      4205      4207      4210
      4206      4205      4211      4212      4206      4205      4211      4213
      4206      4205      4211      4214      4207      4205      4211      4212
      4207      4205      4211      4213      4207      4205      4211      4214
      4208      4207      4205      4211      4209      4207      4205      4211
      4210      4207      4205      4211      4215      4219      4222      4223
      4215      4219      4222      4253      4215      4261      4258      4253
      4215      4261      4258      4259      4215      4261      4258      4260
      4216      4215      4217      4218      4216      4215      4219      4220
      4216      4215      4219      4221      4216      4215      4219      4222
      4216      4215      4261      4258      4216      4215      4261      4262
      4216      4215      4261      4263      4217      4215      4219      4220
      4217      4215      4219      4221      4217      4215      4219      4222
      4217      4215      4261      4258      4217      4215      4261      4262
      4217      4215      4261      4263      4218      4217      4215      4219
      4218      4217      4215      4261      4219      4215      4261      4258
      4219      4215      4261      4262      4219      4215      4261      4263
      4219      4222      4223      4224      4219      4222      4223      4225
      4219      4222      4253      4251      4219      4222      4253      4254
      4219      4222      4253      4258      4220      4219      4215      4261
      4220      4219      4222      4223      4220      4219      4222      4253
      4221      4219      4215      4261      4221      4219      4222      4223
      4221      4219      4222      4253      4222      4219      4215      4261
      4222      4223      4225      4226      4222      4223      4225      4227
      4222      4223      4225      4228      4222      4253      4251      4228
      4222      4253      4251      4248      4222      4253      4251      4252
      4222      4253      4254      4255      4222      4253      4254      4256
      4222      4253      4254      4257      4222      4253      4258      4259
      4222      4253      4258      4260      4222      4253      4258      4261
      4223      4222      4253      4251      4223      4222      4253      4254
      4223      4222      4253      4258      4223      4225      4228      4229
      4223      4225      4228      4230      4223      4225      4228      4251
      4224      4223      4222      4253      4224      4223      4225      4226
      4224      4223      4225      4227      4224      4223      4225      4228
      4225      4223      4222      4253      4225      4228      4230      4231
      4225      4228      4230      4232      4225      4228      4230      4240
      4225      4228      4251      4248      4225      4228      4251      4252
      4225      4228      4251      4253      4226      4225      4228      4229
      4226      4225      4228      4230      4226      4225      4228      4251
      4227      4225      4228      4229      4227      4225      4228      4230
      4227      4225      4228      4251      4228      4230      4232      4233
      4228      4230      4232      4234      4228      4230      4232      4235
      4228      4230      4240      4238      4228      4230      4240      4241
      4228      4230      4240      4245      4228      4251      4248      4245
      4228      4251      4248      4249      4228      4251      4248      4250
      4228      4251      4253      4254      4228      4251      4253      4258
      4229      4228      4230      4231      4229      4228      4230      4232
      4229      4228      4230      4240      4229      4228      4251      4248
      4229      4228      4251      4252      4229      4228      4251      4253
      4230      4228      4251      4248      4230      4228      4251      4252
      4230      4228      4251      4253      4230      4232      4235      4236
      4230      4232      4235      4237      4230      4232      4235      4238
      4230      4240      4238      4235      4230      4240      4238      4239
      4230      4240      4238      4264      4230      4240      4241      4242
      4230      4240      4241      4243      4230      4240      4241      4244
      4230      4240      4245      4246      4230      4240      4245      4247
      4230      4240      4245      4248      4231      4230      4228      4251
      4231      4230      4232      4233      4231      4230      4232      4234
      4231      4230      4232      4235      4231      4230      4240      4238
      4231      4230      4240      4241      4231      4230      4240      4245
      4232      4230      4228      4251      4232      4230      4240      4238
      4232      4230      4240      4241      4232      4230      4240      4245
      4232      4235      4238      4239      4232      4235      4238      4240
      4232      4235      4238      4264      4233      4232      4230      4240
      4233      4232      4235      4236      4233      4232      4235      4237
      4233      4232      4235      4238      4234      4232      4230      4240
      4234      4232      4235      4236      4234      4232      4235      4237
      4234      4232      4235      4238      4235      4232      4230      4240
      4235      4238      4240      4241      4235      4238      4240      4245
      4235      4238      4264      4265      4235      4238      4264      4266
      4235      4238      4264      4270      4236      4235      4238      4239
      4236      4235      4238      4240      4236      4235      4238      4264
      4237      4235      4238      4239      4237      4235      4238      4240
      4237      4235      4238      4264      4238      4240      4241      4242
      4238      4240      4241      4243      4238      4240      4241      4244
      4238      4240      4245      4246      4238      4240      4245      4247
      4238      4240      4245      4248      4238      4264      4266      4267
      4238      4264      4266      4268      4238      4264      4266      4269
      4238      4264      4270      4271      4238      4264      4270      4272
      4238      4264      4270      4273      4239      4238      4240      4241
      4239      4238      4240      4245      4239      4238      4264      4265
      4239      4238      4264      4266      4239      4238      4264      4270
      4240      4230      4228      4251      4240      4238      4264      4265
      4240      4238      4264      4266      4240      4238      4264      4270
      4240      4245      4248      4249      4240      4245      4248      4250
      4240      4245      4248      4251      4241      4240      4238      4264
      4241      4240      4245      4246      4241      4240      4245      4247
      4241      4240      4245      4248      4242      4241      4240      4245
      4243      4241      4240      4245      4244      4241      4240      4245
      4245      4240      4238      4264      4245      4248      4251      4252
      4245      4248      4251      4253      4246      4245      4248      4249
      4246      4245      4248      4250      4246      4245      4248      4251
      4247      4245      4248      4249      4247      4245      4248      4250
      4247      4245      4248      4251      4248      4251      4253      4254
      4248      4251      4253      4258      4249      4248      4251      4252
      4249      4248      4251      4253      4250      4248      4251      4252
      4250      4248      4251      4253      4251      4253      4254      4255
      4251      4253      4254      4256      4251      4253      4254      4257
      4251      4253      4258      4259      4251      4253      4258      4260
      4251      4253      4258      4261      4252      4251      4253      4254
      4252      4251      4253      4258      4253      4258      4261      4262
      4253      4258      4261      4263      4254      4253      4258      4259
      4254      4253      4258      4260      4254      4253      4258      4261
      4255      4254      4253      4258      4256      4254      4253      4258
      4257      4254      4253      4258      4259      4258      4261      4262
      4259      4258      4261      4263      4260      4258      4261      4262
      4260      4258      4261      4263      4264      4270      4273      4274
      4264      4270      4273      4275      4264      4270      4273      4276
      4265      4264      4266      4267      4265      4264      4266      4268
      4265      4264      4266      4269      4265      4264      4270      4271
      4265      4264      4270      4272      4265      4264      4270      4273
      4266      4264      4270      4271      4266      4264      4270      4272
      4266      4264      4270      4273      4267      4266      4264      4270
      4268      4266      4264      4270      4269      4266      4264      4270
      4270      4273      4276      4277      4270      4273      4276      4278
      4270      4273      4276      4279      4271      4270      4273      4274
      4271      4270      4273      4275      4271      4270      4273      4276
      4272      4270      4273      4274      4272      4270      4273      4275
      4272      4270      4273      4276      4273      4276      4279      4280
      4273      4276      4279      4281      4273      4276      4279      4285
      4274      4273      4276      4277      4274      4273      4276      4278
      4274      4273      4276      4279      4275      4273      4276      4277
      4275      4273      4276      4278      4275      4273      4276      4279
      4276      4279      4281      4282      4276      4279      4281      4283
      4276      4279      4281      4284      4276      4279      4285      4286
      4276      4279      4285      4287      4276      4279      4285      4288
      4277      4276      4279      4280      4277      4276      4279      4281
      4277      4276      4279      4285      4278      4276      4279      4280
      4278      4276      4279      4281      4278      4276      4279      4285
      4280      4279      4281      4282      4280      4279      4281      4283
      4280      4279      4281      4284      4280      4279      4285      4286
      4280      4279      4285      4287      4280      4279      4285      4288
      4281      4279      4285      4286      4281      4279      4285      4287
      4281      4279      4285      4288      4282      4281      4279      4285
      4283      4281      4279      4285      4284      4281      4279      4285
     21681     21685     21687     21688     21681     21685     21689     21690
     21681     21685     21689     21691     21681     21685     21689     21693
     21681     21701     21697     21693     21681     21701     21697     21698
     21681     21701     21697     21699     21681     21701     21706     21703
     21682     21681     21683     21684     21682     21681     21685     21686
     21682     21681     21685     21687     21682     21681     21685     21689
     21682     21681     21701     21697     21682     21681     21701     21702
     21682     21681     21701     21706     21683     21681     21685     21686
     21683     21681     21685     21687     21683     21681     21685     21689
     21683     21681     21701     21697     21683     21681     21701     21702
     21683     21681     21701     21706     21684     21683     21681     21685
     21684     21683     21681     21701     21685     21681     21701     21697
     21685     21681     21701     21702     21685     21681     21701     21706
     21685     21689     21691     21692     21685     21689     21693     21694
     21685     21689     21693     21695     21685     21689     21693     21697
     21686     21685     21681     21701     21686     21685     21687     21688
     21686     21685     21689     21690     21686     21685     21689     21691
     21686     21685     21689     21693     21687     21685     21681     21701
     21687     21685     21689     21690     21687     21685     21689     21691
     21687     21685     21689     21693     21688     21687     21685     21689
     21689     21685     21681     21701     21689     21693     21695     21696
     21689     21693     21697     21698     21689     21693     21697     21699
     21689     21693     21697     21701     21690     21689     21691     21692
     21690     21689     21693     21694     21690     21689     21693     21695
     21690     21689     21693     21697     21691     21689     21693     21694
     21691     21689     21693     21695     21691     21689     21693     21697
     21692     21691     21689     21693     21693     21697     21699     21700
     21693     21697     21701     21702     21693     21697     21701     21706
     21694     21693     21695     21696     21694     21693     21697     21698
     21694     21693     21697     21699     21694     21693     21697     21701
     21695     21693     21697     21698     21695     21693     21697     21699
     21695     21693     21697     21701     21696     21695     21693     21697
     21697     21701     21706     21703     21698     21697     21699     21700
     21698     21697     21701     21702     21698     21697     21701     21706
     21699     21697     21701     21702     21699     21697     21701     21706
     21700     21699     21697     21701     21701     21706     21703     21704
     21701     21706     21703     21705     21701     21706     21703     21707
     21702     21701     21706     21703     21703     21707     21708     21709
     21703     21707     21708     21710     21703     21707     21708     21711
     21704     21703     21707     21708     21705     21703     21707     21708
     21706     21703     21707     21708     21707     21708     21711     21712
     21707     21708     21711     21713     21707     21708     21711     21719
     21708     21711     21713     21714     21708     21711     21719     21720
     21708     21711     21719     21721     21708     21711     21719     21722
     21709     21708     21711     21712     21709     21708     21711     21713
     21709     21708     21711     21719     21710     21708     21711     21712
     21710     21708     21711     21713     21710     21708     21711     21719
     21711     21713     21714     21715     21711     21713     21714     21716
     21711     21719     21722     21723     21712     21711     21713     21714
     21712     21711     21719     21720     21712     21711     21719     21721
     21712     21711     21719     21722     21713     21711     21719     21720
     21713     21711     21719     21721     21713     21711     21719     21722
     21713     21714     21716     21717     21713     21714     21716     21718
     21713     21714     21716     21728     21714     21713     21711     21719
     21714     21716     21728     21729     21714     21716     21728     21730
     21714     21716     21728     21731     21715     21714     21716     21717
     21715     21714     21716     21718     21715     21714     21716     21728
     21716     21728     21731     21732     21716     21728     21731     21733
     21716     21728     21731     21734     21717     21716     21728     21729
     21717     21716     21728     21730     21717     21716     21728     21731
     21718     21716     21728     21729     21718     21716     21728     21730
     21718     21716     21728     21731     21719     21722     21723     21724
     21719     21722     21723     21725     21720     21719     21722     21723
     21721     21719     21722     21723     21722     21723     21725     21726
     21722     21723     21725     21727     21722     21723     21725     21775
     21723     21725     21775     21776     21723     21725     21775     21777
     21723     21725     21775     21778     21724     21723     21725     21726
     21724     21723     21725     21727     21724     21723     21725     21775
     21725     21775     21778     21779     21725     21775     21778     21780
     21725     21775     21778     21781     21726     21725     21775     21776
     21726     21725     21775     21777     21726     21725     21775     21778
     21727     21725     21775     21776     21727     21725     21775     21777
     21727     21725     21775     21778     21728     21731     21734     21735
     21728     21731     21734     21736     21729     21728     21731     21732
     21729     21728     21731     21733     21729     21728     21731     21734
     21730     21728     21731     21732     21730     21728     21731     21733
     21730     21728     21731     21734     21731     21734     21736     21737
     21731     21734     21736     21738     21732     21731     21734     21735
     21732     21731     21734     21736     21733     21731     21734     21735
     21733     21731     21734     21736     21734     21736     21738     21739
     21734     21736     21738     21740     21734     21736     21738     21741
     21735     21734     21736     21737     21735     21734     21736     21738
     21736     21738     21741     21742     21736     21738     21741     21743
     21737     21736     21738     21739     21737     21736     21738     21740
     21737     21736     21738     21741     21738     21741     21743     21744
     21738     21741     21743     21745     21739     21738     21741     21742
     21739     21738     21741     21743     21740     21738     21741     21742
     21740     21738     21741     21743     21741     21743     21745     21746
     21741     21743     21745     21747     21741     21743     21745     21748
     21742     21741     21743     21744     21742     21741     21743     21745
     21743     21745     21748     21749     21743     21745     21748     21750
     21744     21743     21745     21746     21744     21743     21745     21747
     21744     21743     21745     21748     21745     21748     21750     21751
     21745     21748     21750     21752     21746     21745     21748     21749
     21746     21745     21748     21750     21747     21745     21748     21749
     21747     21745     21748     21750     21748     21750     21752     21753
     21748     21750     21752     21754     21748     21750     21752     21755
     21749     21748     21750     21751     21749     21748     21750     21752
     21750     21752     21755     21756     21750     21752     21755     21757
     21751     21750     21752     21753     21751     21750     21752     21754
     21751     21750     21752     21755     21752     21755     21757     21758
     21752     21755     21757     21759     21753     21752     21755     21756
     21753     21752     21755     21757     21754     21752     21755     21756
     21754     21752     21755     21757     21755     21757     21759     21760
     21755     21757     21759     21761     21755     21757     21759     21762
     21756     21755     21757     21758     21756     21755     21757     21759
     21757     21759     21762     21763     21757     21759     21762     21764
     21757     21759     21762     21765     21758     21757     21759     21760
     21758     21757     21759     21761     21758     21757     21759     21762
     21759     21762     21765     21766     21759     21762     21765     21767
     21759     21762     21765     21768     21760     21759     21762     21763
     21760     21759     21762     21764     21760     21759     21762     21765
     21761     21759     21762     21763     21761     21759     21762     21764
     21761     21759     21762     21765     21762     21765     21768     21769
     21762     21765     21768     21770     21762     21765     21768     21771
     21763     21762     21765     21766     21763     21762     21765     21767
     21763     21762     21765     21768     21764     21762     21765     21766
     21764     21762     21765     21767     21764     21762     21765     21768
     21765     21768     21771     21772     21765     21768     21771     21773
     21765     21768     21771     21774     21766     21765     21768     21769
     21766     21765     21768     21770     21766     21765     21768     21771
     21767     21765     21768     21769     21767     21765     21768     21770
     21767     21765     21768     21771     21769     21768     21771     21772
     21769     21768     21771     21773     21769     21768     21771     21774
     21770     21768     21771     21772     21770     21768     21771     21773
     21770     21768     21771     21774     21775     21778     21781     21782
     21775     21778     21781     21783     21775     21778     21781     21784
     21776     21775     21778     21779     21776     21775     21778     21780
     21776     21775     21778     21781     21777     21775     21778     21779
     21777     21775     21778     21780     21777     21775     21778     21781
     21778     21781     21784     21785     21778     21781     21784     21786
     21778     21781     21784     21787     21779     21778     21781     21782
     21779     21778     21781     21783     21779     21778     21781     21784
     21780     21778     21781     21782     21780     21778     21781     21783
     21780     21778     21781     21784     21781     21784     21787     21788
     21781     21784     21787     21789     21781     21784     21787     21790
     21782     21781     21784     21785     21782     21781     21784     21786
     21782     21781     21784     21787     21783     21781     21784     21785
     21783     21781     21784     21786     21783     21781     21784     21787
     21784     21787     21790     21791     21784     21787     21790     21792
     21784     21787     21790     21793     21785     21784     21787     21788
     21785     21784     21787     21789     21785     21784     21787     21790
     21786     21784     21787     21788     21786     21784     21787     21789
     21786     21784     21787     21790     21787     21790     21793     21794
     21787     21790     21793     21795     21787     21790     21793     21796
     21788     21787     21790     21791     21788     21787     21790     21792
     21788     21787     21790     21793     21789     21787     21790     21791
     21789     21787     21790     21792     21789     21787     21790     21793
     21790     21793     21796     21797     21790     21793     21796     21798
     21790     21793     21796     21799     21791     21790     21793     21794
     21791     21790     21793     21795     21791     21790     21793     21796
     21792     21790     21793     21794     21792     21790     21793     21795
     21792     21790     21793     21796     21793     21796     21799     21800
     21793     21796     21799     21801     21793     21796     21799     21802
     21794     21793     21796     21797     21794     21793     21796     21798
     21794     21793     21796     21799     21795     21793     21796     21797
     21795     21793     21796     21798     21795     21793     21796     21799
     21796     21799     21802     21803     21796     21799     21802     21804
     21796     21799     21802     21805     21797     21796     21799     21800
     21797     21796     21799     21801     21797     21796     21799     21802
     21798     21796     21799     21800     21798     21796     21799     21801
     21798     21796     21799     21802     21799     21802     21805     21806
     21799     21802     21805     21807     21799     21802     21805     21808
     21800     21799     21802     21803     21800     21799     21802     21804
     21800     21799     21802     21805     21801     21799     21802     21803
     21801     21799     21802     21804     21801     21799     21802     21805
     21802     21805     21808     21809     21802     21805     21808     21810
     21802     21805     21808     21811     21803     21802     21805     21806
     21803     21802     21805     21807     21803     21802     21805     21808
     21804     21802     21805     21806     21804     21802     21805     21807
     21804     21802     21805     21808     21805     21808     21811     21812
     21805     21808     21811     21813     21805     21808     21811     21814
     21806     21805     21808     21809     21806     21805     21808     21810
     21806     21805     21808     21811     21807     21805     21808     21809
     21807     21805     21808     21810     21807     21805     21808     21811
     21808     21811     21814     21815     21808     21811     21814     21816
     21808     21811     21814     21817     21809     21808     21811     21812
     21809     21808     21811     21813     21809     21808     21811     21814
     21810     21808     21811     21812     21810     21808     21811     21813
     21810     21808     21811     21814     21811     21814     21817     21818
     21811     21814     21817     21819     21811     21814     21817     21820
     21812     21811     21814     21815     21812     21811     21814     21816
     21812     21811     21814     21817     21813     21811     21814     21815
     21813     21811     21814     21816     21813     21811     21814     21817
     21814     21817     21820     21821     21814     21817     21820     21822
     21814     21817     21820     21823     21815     21814     21817     21818
     21815     21814     21817     21819     21815     21814     21817     21820
     21816     21814     21817     21818     21816     21814     21817     21819
     21816     21814     21817     21820     21818     21817     21820     21821
     21818     21817     21820     21822     21818     21817     21820     21823
     21819     21817     21820     21821     21819     21817     21820     21822
     21819     21817     21820     21823      4289      4293      4296      4297
      4289      4293      4296      4327      4289      4335      4332      4327
      4289      4335      4332      4333      4289      4335      4332      4334
      4290      4289      4291      4292      4290      4289      4293      4294
      4290      4289      4293      4295      4290      4289      4293      4296
      4290      4289      4335      4332      4290      4289      4335      4336
      4290      4289      4335      4337      4291      4289      4293      4294
      4291      4289      4293      4295      4291      4289      4293      4296
      4291      4289      4335      4332      4291      4289      4335      4336
      4291      4289      4335      4337      4292      4291      4289      4293
      4292      4291      4289      4335      4293      4289      4335      4332
      4293      4289      4335      4336      4293      4289      4335      4337
      4293      4296      4297      4298      4293      4296      4297      4299
      4293      4296      4327      4325      4293      4296      4327      4328
      4293      4296      4327      4332      4294      4293      4289      4335
      4294      4293      4296      4297      4294      4293      4296      4327
      4295      4293      4289      4335      4295      4293      4296      4297
      4295      4293      4296      4327      4296      4293      4289      4335
      4296      4297      4299      4300      4296      4297      4299      4301
      4296      4297      4299      4302      4296      4327      4325      4302
      4296      4327      4325      4322      4296      4327      4325      4326
      4296      4327      4328      4329      4296      4327      4328      4330
      4296      4327      4328      4331      4296      4327      4332      4333
      4296      4327      4332      4334      4296      4327      4332      4335
      4297      4296      4327      4325      4297      4296      4327      4328
      4297      4296      4327      4332      4297      4299      4302      4303
      4297      4299      4302      4304      4297      4299      4302      4325
      4298      4297      4296      4327      4298      4297      4299      4300
      4298      4297      4299      4301      4298      4297      4299      4302
      4299      4297      4296      4327      4299      4302      4304      4305
      4299      4302      4304      4306      4299      4302      4304      4314
      4299      4302      4325      4322      4299      4302      4325      4326
      4299      4302      4325      4327      4300      4299      4302      4303
      4300      4299      4302      4304      4300      4299      4302      4325
      4301      4299      4302      4303      4301      4299      4302      4304
      4301      4299      4302      4325      4302      4304      4306      4307
      4302      4304      4306      4308      4302      4304      4306      4309
      4302      4304      4314      4312      4302      4304      4314      4315
      4302      4304      4314      4319      4302      4325      4322      4319
      4302      4325      4322      4323      4302      4325      4322      4324
      4302      4325      4327      4328      4302      4325      4327      4332
      4303      4302      4304      4305      4303      4302      4304      4306
      4303      4302      4304      4314      4303      4302      4325      4322
      4303      4302      4325      4326      4303      4302      4325      4327
      4304      4302      4325      4322      4304      4302      4325      4326
      4304      4302      4325      4327      4304      4306      4309      4310
      4304      4306      4309      4311      4304      4306      4309      4312
      4304      4314      4312      4309      4304      4314      4312      4313
      4304      4314      4312      4338      4304      4314      4315      4316
      4304      4314      4315      4317      4304      4314      4315      4318
      4304      4314      4319      4320      4304      4314      4319      4321
      4304      4314      4319      4322      4305      4304      4302      4325
      4305      4304      4306      4307      4305      4304      4306      4308
      4305      4304      4306      4309      4305      4304      4314      4312
      4305      4304      4314      4315      4305      4304      4314      4319
      4306      4304      4302      4325      4306      4304      4314      4312
      4306      4304      4314      4315      4306      4304      4314      4319
      4306      4309      4312      4313      4306      4309      4312      4314
      4306      4309      4312      4338      4307      4306      4304      4314
      4307      4306      4309      4310      4307      4306      4309      4311
      4307      4306      4309      4312      4308      4306      4304      4314
      4308      4306      4309      4310      4308      4306      4309      4311
      4308      4306      4309      4312      4309      4306      4304      4314
      4309      4312      4314      4315      4309      4312      4314      4319
      4309      4312      4338      4339      4309      4312      4338      4340
      4309      4312      4338      4344      4310      4309      4312      4313
      4310      4309      4312      4314      4310      4309      4312      4338
      4311      4309      4312      4313      4311      4309      4312      4314
      4311      4309      4312      4338      4312      4314      4315      4316
      4312      4314      4315      4317      4312      4314      4315      4318
      4312      4314      4319      4320      4312      4314      4319      4321
      4312      4314      4319      4322      4312      4338      4340      4341
      4312      4338      4340      4342      4312      4338      4340      4343
      4312      4338      4344      4345      4312      4338      4344      4346
      4312      4338      4344      4347      4313      4312      4314      4315
      4313      4312      4314      4319      4313      4312      4338      4339
      4313      4312      4338      4340      4313      4312      4338      4344
      4314      4304      4302      4325      4314      4312      4338      4339
      4314      4312      4338      4340      4314      4312      4338      4344
      4314      4319      4322      4323      4314      4319      4322      4324
      4314      4319      4322      4325      4315      4314      4312      4338
      4315      4314      4319      4320      4315      4314      4319      4321
      4315      4314      4319      4322      4316      4315      4314      4319
      4317      4315      4314      4319      4318      4315      4314      4319
      4319      4314      4312      4338      4319      4322      4325      4326
      4319      4322      4325      4327      4320      4319      4322      4323
      4320      4319      4322      4324      4320      4319      4322      4325
      4321      4319      4322      4323      4321      4319      4322      4324
      4321      4319      4322      4325      4322      4325      4327      4328
      4322      4325      4327      4332      4323      4322      4325      4326
      4323      4322      4325      4327      4324      4322      4325      4326
      4324      4322      4325      4327      4325      4327      4328      4329
      4325      4327      4328      4330      4325      4327      4328      4331
      4325      4327      4332      4333      4325      4327      4332      4334
      4325      4327      4332      4335      4326      4325      4327      4328
      4326      4325      4327      4332      4327      4332      4335      4336
      4327      4332      4335      4337      4328      4327      4332      4333
      4328      4327      4332      4334      4328      4327      4332      4335
      4329      4328      4327      4332      4330      4328      4327      4332
      4331      4328      4327      4332      4333      4332      4335      4336
      4333      4332      4335      4337      4334      4332      4335      4336
      4334      4332      4335      4337      4338      4344      4347      4348
      4338      4344      4347      4349      4338      4344      4347      4350
      4339      4338      4340      4341      4339      4338      4340      4342
      4339      4338      4340      4343      4339      4338      4344      4345
      4339      4338      4344      4346      4339      4338      4344      4347
      4340      4338      4344      4345      4340      4338      4344      4346
      4340      4338      4344      4347      4341      4340      4338      4344
      4342      4340      4338      4344      4343      4340      4338      4344
      4344      4347      4350      4351      4344      4347      4350      4352
      4344      4347      4350      4353      4345      4344      4347      4348
      4345      4344      4347      4349      4345      4344      4347      4350
      4346      4344      4347      4348      4346      4344      4347      4349
      4346      4344      4347      4350      4347      4350      4353      4354
      4347      4350      4353      4355      4347      4350      4353      4359
      4348      4347      4350      4351      4348      4347      4350      4352
      4348      4347      4350      4353      4349      4347      4350      4351
      4349      4347      4350      4352      4349      4347      4350      4353
      4350      4353      4355      4356      4350      4353      4355      4357
      4350      4353      4355      4358      4350      4353      4359      4360
      4350      4353      4359      4361      4350      4353      4359      4362
      4351      4350      4353      4354      4351      4350      4353      4355
      4351      4350      4353      4359      4352      4350      4353      4354
      4352      4350      4353      4355      4352      4350      4353      4359
      4354      4353      4355      4356      4354      4353      4355      4357
      4354      4353      4355      4358      4354      4353      4359      4360
      4354      4353      4359      4361      4354      4353      4359      4362
      4355      4353      4359      4360      4355      4353      4359      4361
      4355      4353      4359      4362      4356      4355      4353      4359
      4357      4355      4353      4359      4358      4355      4353      4359
     11891     11904     11907     11908     11891     11904     11907     11909
     11891     11904     11907     11914     11892     11891     11896     11897
     11892     11891     11896     11898     11892     11891     11896     11899
     11892     11891     11900     11901     11892     11891     11900     11902
     11892     11891     11900     11903     11892     11891     11904     11905
     11892     11891     11904     11906     11892     11891     11904     11907
     11893     11892     11891     11896     11893     11892     11891     11900
     11893     11892     11891     11904     11894     11892     11891     11896
     11894     11892     11891     11900     11894     11892     11891     11904
     11895     11892     11891     11896     11895     11892     11891     11900
     11895     11892     11891     11904     11896     11891     11900     11901
     11896     11891     11900     11902     11896     11891     11900     11903
     11896     11891     11904     11905     11896     11891     11904     11906
     11896     11891     11904     11907     11897     11896     11891     11900
     11897     11896     11891     11904     11898     11896     11891     11900
     11898     11896     11891     11904     11899     11896     11891     11900
     11899     11896     11891     11904     11900     11891     11904     11905
     11900     11891     11904     11906     11900     11891     11904     11907
     11901     11900     11891     11904     11902     11900     11891     11904
     11903     11900     11891     11904     11904     11907     11914     11910
     11905     11904     11907     11908     11905     11904     11907     11909
     11905     11904     11907     11914     11906     11904     11907     11908
     11906     11904     11907     11909     11906     11904     11907     11914
     11907     11914     11910     11911     11907     11914     11910     11912
     11907     11914     11910     11913     11908     11907     11914     11910
     11909     11907     11914     11910     11910     11913     11915     11916
     11910     11913     11915     11917     11910     11913     11915     11920
     11911     11910     11913     11915     11912     11910     11913     11915
     11913     11915     11920     11918     11913     11915     11920     11921
     11913     11915     11920     11922     11914     11910     11913     11915
     11915     11920     11918     11919     11915     11920     11918     11970
     11915     11920     11922     11923     11915     11920     11922     11924
     11915     11920     11922     11926     11916     11915     11920     11918
     11916     11915     11920     11921     11916     11915     11920     11922
     11917     11915     11920     11918     11917     11915     11920     11921
     11917     11915     11920     11922     11918     11920     11922     11923
     11918     11920     11922     11924     11918     11920     11922     11926
     11918     11970     11972     11973     11918     11970     11972     11974
     11918     11970     11972     11975     11919     11918     11920     11921
     11919     11918     11920     11922     11919     11918     11970     11971
     11919     11918     11970     11972     11920     11918     11970     11971
     11920     11918     11970     11972     11920     11922     11924     11925
     11920     11922     11926     11927     11920     11922     11926     11928
     11921     11920     11918     11970     11921     11920     11922     11923
     11921     11920     11922     11924     11921     11920     11922     11926
     11922     11920     11918     11970     11922     11926     11928     11929
     11922     11926     11928     11930     11923     11922     11924     11925
     11923     11922     11926     11927     11923     11922     11926     11928
     11924     11922     11926     11927     11924     11922     11926     11928
     11925     11924     11922     11926     11926     11928     11930     11931
     11926     11928     11930     11932     11926     11928     11930     11933
     11927     11926     11928     11929     11927     11926     11928     11930
     11928     11930     11933     11934     11928     11930     11933     11935
     11928     11930     11933     11936     11929     11928     11930     11931
     11929     11928     11930     11932     11929     11928     11930     11933
     11930     11933     11936     11937     11930     11933     11936     11938
     11930     11933     11936     11939     11931     11930     11933     11934
     11931     11930     11933     11935     11931     11930     11933     11936
     11932     11930     11933     11934     11932     11930     11933     11935
     11932     11930     11933     11936     11933     11936     11939     11940
     11933     11936     11939     11941     11933     11936     11939     11942
     11934     11933     11936     11937     11934     11933     11936     11938
     11934     11933     11936     11939     11935     11933     11936     11937
     11935     11933     11936     11938     11935     11933     11936     11939
     11936     11939     11942     11943     11936     11939     11942     11944
     11936     11939     11942     11945     11937     11936     11939     11940
     11937     11936     11939     11941     11937     11936     11939     11942
     11938     11936     11939     11940     11938     11936     11939     11941
     11938     11936     11939     11942     11939     11942     11945     11946
     11939     11942     11945     11947     11939     11942     11945     11948
     11940     11939     11942     11943     11940     11939     11942     11944
     11940     11939     11942     11945     11941     11939     11942     11943
     11941     11939     11942     11944     11941     11939     11942     11945
     11942     11945     11948     11949     11942     11945     11948     11950
     11942     11945     11948     11951     11943     11942     11945     11946
     11943     11942     11945     11947     11943     11942     11945     11948
     11944     11942     11945     11946     11944     11942     11945     11947
     11944     11942     11945     11948     11945     11948     11951     11952
     11945     11948     11951     11953     11945     11948     11951     11954
     11946     11945     11948     11949     11946     11945     11948     11950
     11946     11945     11948     11951     11947     11945     11948     11949
     11947     11945     11948     11950     11947     11945     11948     11951
     11948     11951     11954     11955     11948     11951     11954     11956
     11948     11951     11954     11957     11949     11948     11951     11952
     11949     11948     11951     11953     11949     11948     11951     11954
     11950     11948     11951     11952     11950     11948     11951     11953
     11950     11948     11951     11954     11951     11954     11957     11958
     11951     11954     11957     11959     11951     11954     11957     11960
     11952     11951     11954     11955     11952     11951     11954     11956
     11952     11951     11954     11957     11953     11951     11954     11955
     11953     11951     11954     11956     11953     11951     11954     11957
     11954     11957     11960     11961     11954     11957     11960     11962
     11954     11957     11960     11963     11955     11954     11957     11958
     11955     11954     11957     11959     11955     11954     11957     11960
     11956     11954     11957     11958     11956     11954     11957     11959
     11956     11954     11957     11960     11957     11960     11963     11964
     11957     11960     11963     11965     11957     11960     11963     11966
     11958     11957     11960     11961     11958     11957     11960     11962
     11958     11957     11960     11963     11959     11957     11960     11961
     11959     11957     11960     11962     11959     11957     11960     11963
     11960     11963     11966     11967     11960     11963     11966     11968
     11960     11963     11966     11969     11961     11960     11963     11964
     11961     11960     11963     11965     11961     11960     11963     11966
     11962     11960     11963     11964     11962     11960     11963     11965
     11962     11960     11963     11966     11964     11963     11966     11967
     11964     11963     11966     11968     11964     11963     11966     11969
     11965     11963     11966     11967     11965     11963     11966     11968
     11965     11963     11966     11969     11970     11972     11975     11976
     11970     11972     11975     11977     11970     11972     11975     11978
     11971     11970     11972     11973     11971     11970     11972     11974
     11971     11970     11972     11975     11972     11975     11978     11979
     11972     11975     11978     11980     11972     11975     11978     11981
     11973     11972     11975     11976     11973     11972     11975     11977
     11973     11972     11975     11978     11974     11972     11975     11976
     11974     11972     11975     11977     11974     11972     11975     11978
     11975     11978     11981     11982     11975     11978     11981     11983
     11975     11978     11981     11984     11976     11975     11978     11979
     11976     11975     11978     11980     11976     11975     11978     11981
     11977     11975     11978     11979     11977     11975     11978     11980
     11977     11975     11978     11981     11978     11981     11984     11985
     11978     11981     11984     11986     11978     11981     11984     11987
     11979     11978     11981     11982     11979     11978     11981     11983
     11979     11978     11981     11984     11980     11978     11981     11982
     11980     11978     11981     11983     11980     11978     11981     11984
     11981     11984     11987     11988     11981     11984     11987     11989
     11981     11984     11987     11990     11982     11981     11984     11985
     11982     11981     11984     11986     11982     11981     11984     11987
     11983     11981     11984     11985     11983     11981     11984     11986
     11983     11981     11984     11987     11984     11987     11990     11991
     11984     11987     11990     11992     11984     11987     11990     11993
     11985     11984     11987     11988     11985     11984     11987     11989
     11985     11984     11987     11990     11986     11984     11987     11988
     11986     11984     11987     11989     11986     11984     11987     11990
     11987     11990     11993     11994     11987     11990     11993     11995
     11988     11987     11990     11991     11988     11987     11990     11992
     11988     11987     11990     11993     11989     11987     11990     11991
     11989     11987     11990     11992     11989     11987     11990     11993
     11990     11993     11995     11996     11990     11993     11995     11997
     11991     11990     11993     11994     11991     11990     11993     11995
     11992     11990     11993     11994     11992     11990     11993     11995
     11993     11995     11997     11998     11993     11995     11997     11999
     11993     11995     11997     12000     11994     11993     11995     11996
     11994     11993     11995     11997     11995     11997     12000     12001
     11995     11997     12000     12002     11995     11997     12000     12003
     11996     11995     11997     11998     11996     11995     11997     11999
     11996     11995     11997     12000     11997     12000     12003     12004
     11997     12000     12003     12005     11997     12000     12003     12006
     11998     11997     12000     12001     11998     11997     12000     12002
     11998     11997     12000     12003     11999     11997     12000     12001
     11999     11997     12000     12002     11999     11997     12000     12003
     12000     12003     12006     12007     12000     12003     12006     12008
     12000     12003     12006     12009     12001     12000     12003     12004
     12001     12000     12003     12005     12001     12000     12003     12006
     12002     12000     12003     12004     12002     12000     12003     12005
     12002     12000     12003     12006     12003     12006     12009     12010
     12003     12006     12009     12011     12003     12006     12009     12012
     12004     12003     12006     12007     12004     12003     12006     12008
     12004     12003     12006     12009     12005     12003     12006     12007
     12005     12003     12006     12008     12005     12003     12006     12009
     12006     12009     12012     12013     12006     12009     12012     12014
     12006     12009     12012     12015     12007     12006     12009     12010
     12007     12006     12009     12011     12007     12006     12009     12012
     12008     12006     12009     12010     12008     12006     12009     12011
     12008     12006     12009     12012     12009     12012     12015     12016
     12009     12012     12015     12017     12009     12012     12015     12018
     12010     12009     12012     12013     12010     12009     12012     12014
     12010     12009     12012     12015     12011     12009     12012     12013
     12011     12009     12012     12014     12011     12009     12012     12015
     12012     12015     12018     12019     12012     12015     12018     12020
     12012     12015     12018     12021     12013     12012     12015     12016
     12013     12012     12015     12017     12013     12012     12015     12018
     12014     12012     12015     12016     12014     12012     12015     12017
     12014     12012     12015     12018     12016     12015     12018     12019
     12016     12015     12018     12020     12016     12015     12018     12021
     12017     12015     12018     12019     12017     12015     12018     12020
     12017     12015     12018     12021       799       803       805       806
       799       803       805       807       799       803       808       809
       799       803       808       810       799       803       808       814
       800       799       803       804       800       799       803       805
       800       799       803       808       801       799       803       804
       801       799       803       805       801       799       803       808
       802       799       803       804       802       799       803       805
       802       799       803       808       803       808       814       811
       804       803       805       806       804       803       805       807
       804       803       808       809       804       803       808       810
       804       803       808       814       805       803       808       809
       805       803       808       810       805       803       808       814
       806       805       803       808       807       805       803       808
       808       814       811       812       808       814       811       813
       808       814       811       815       809       808       814       811
       810       808       814       811       811       815       816       817
       811       815       816       818       811       815       816       819
       812       811       815       816       813       811       815       816
       814       811       815       816       815       816       819       820
       815       816       819       821       815       816       819       827
       816       819       821       822       816       819       827       828
       816       819       827       829       816       819       827       830
       817       816       819       820       817       816       819       821
       817       816       819       827       818       816       819       820
       818       816       819       821       818       816       819       827
       819       821       822       823       819       821       822       824
       819       827       830       831       820       819       821       822
       820       819       827       828       820       819       827       829
       820       819       827       830       821       819       827       828
       821       819       827       829       821       819       827       830
       821       822       824       825       821       822       824       826
       821       822       824       836       822       821       819       827
       822       824       836       837       822       824       836       838
       822       824       836       839       823       822       824       825
       823       822       824       826       823       822       824       836
       824       836       839       840       824       836       839       841
       824       836       839       842       825       824       836       837
       825       824       836       838       825       824       836       839
       826       824       836       837       826       824       836       838
       826       824       836       839       827       830       831       832
       827       830       831       833       828       827       830       831
       829       827       830       831       830       831       833       834
       830       831       833       835       830       831       833       883
       831       833       883       884       831       833       883       885
       831       833       883       886       832       831       833       834
       832       831       833       835       832       831       833       883
       833       883       886       887       833       883       886       888
       833       883       886       889       834       833       883       884
       834       833       883       885       834       833       883       886
       835       833       883       884       835       833       883       885
       835       833       883       886       836       839       842       843
       836       839       842       844       837       836       839       840
       837       836       839       841       837       836       839       842
       838       836       839       840       838       836       839       841
       838       836       839       842       839       842       844       845
       839       842       844       846       840       839       842       843
       840       839       842       844       841       839       842       843
       841       839       842       844       842       844       846       847
       842       844       846       848       842       844       846       849
       843       842       844       845       843       842       844       846
       844       846       849       850       844       846       849       851
       845       844       846       847       845       844       846       848
       845       844       846       849       846       849       851       852
       846       849       851       853       847       846       849       850
       847       846       849       851       848       846       849       850
       848       846       849       851       849       851       853       854
       849       851       853       855       849       851       853       856
       850       849       851       852       850       849       851       853
       851       853       856       857       851       853       856       858
       852       851       853       854       852       851       853       855
       852       851       853       856       853       856       858       859
       853       856       858       860       854       853       856       857
       854       853       856       858       855       853       856       857
       855       853       856       858       856       858       860       861
       856       858       860       862       856       858       860       863
       857       856       858       859       857       856       858       860
       858       860       863       864       858       860       863       865
       859       858       860       861       859       858       860       862
       859       858       860       863       860       863       865       866
       860       863       865       867       861       860       863       864
       861       860       863       865       862       860       863       864
       862       860       863       865       863       865       867       868
       863       865       867       869       863       865       867       870
       864       863       865       866       864       863       865       867
       865       867       870       871       865       867       870       872
       865       867       870       873       866       865       867       868
       866       865       867       869       866       865       867       870
       867       870       873       874       867       870       873       875
       867       870       873       876       868       867       870       871
       868       867       870       872       868       867       870       873
       869       867       870       871       869       867       870       872
       869       867       870       873       870       873       876       877
       870       873       876       878       870       873       876       879
       871       870       873       874       871       870       873       875
       871       870       873       876       872       870       873       874
       872       870       873       875       872       870       873       876
       873       876       879       880       873       876       879       881
       873       876       879       882       874       873       876       877
       874       873       876       878       874       873       876       879
       875       873       876       877       875       873       876       878
       875       873       876       879       877       876       879       880
       877       876       879       881       877       876       879       882
       878       876       879       880       878       876       879       881
       878       876       879       882       883       886       889       890
       883       886       889       891       883       886       889       892
       884       883       886       887       884       883       886       888
       884       883       886       889       885       883       886       887
       885       883       886       888       885       883       886       889
       886       889       892       893       886       889       892       894
       886       889       892       895       887       886       889       890
       887       886       889       891       887       886       889       892
       888       886       889       890       888       886       889       891
       888       886       889       892       889       892       895       896
       889       892       895       897       889       892       895       898
       890       889       892       893       890       889       892       894
       890       889       892       895       891       889       892       893
       891       889       892       894       891       889       892       895
       892       895       898       899       892       895       898       900
       892       895       898       901       893       892       895       896
       893       892       895       897       893       892       895       898
       894       892       895       896       894       892       895       897
       894       892       895       898       895       898       901       902
       895       898       901       903       895       898       901       904
       896       895       898       899       896       895       898       900
       896       895       898       901       897       895       898       899
       897       895       898       900       897       895       898       901
       898       901       904       905       898       901       904       906
       898       901       904       907       899       898       901       902
       899       898       901       903       899       898       901       904
       900       898       901       902       900       898       901       903
       900       898       901       904       901       904       907       908
       901       904       907       909       901       904       907       910
       902       901       904       905       902       901       904       906
       902       901       904       907       903       901       904       905
       903       901       904       906       903       901       904       907
       904       907       910       911       904       907       910       912
       904       907       910       913       905       904       907       908
       905       904       907       909       905       904       907       910
       906       904       907       908       906       904       907       909
       906       904       907       910       907       910       913       914
       907       910       913       915       907       910       913       916
       908       907       910       911       908       907       910       912
       908       907       910       913       909       907       910       911
       909       907       910       912       909       907       910       913
       910       913       916       917       910       913       916       918
       910       913       916       919       911       910       913       914
       911       910       913       915       911       910       913       916
       912       910       913       914       912       910       913       915
       912       910       913       916       913       916       919       920
       913       916       919       921       913       916       919       922
       914       913       916       917       914       913       916       918
       914       913       916       919       915       913       916       917
       915       913       916       918       915       913       916       919
       916       919       922       923       916       919       922       924
       916       919       922       925       917       916       919       920
       917       916       919       921       917       916       919       922
       918       916       919       920       918       916       919       921
       918       916       919       922       919       922       925       926
       919       922       925       927       919       922       925       928
       920       919       922       923       920       919       922       924
       920       919       922       925       921       919       922       923
       921       919       922       924       921       919       922       925
       922       925       928       929       922       925       928       930
       922       925       928       931       923       922       925       926
       923       922       925       927       923       922       925       928
       924       922       925       926       924       922       925       927
       924       922       925       928       926       925       928       929
       926       925       928       930       926       925       928       931
       927       925       928       929       927       925       928       930
       927       925       928       931     17000     17004     17007     17008
     17000     17004     17007     17009     17000     17004     17007     17013
     17001     17000     17004     17005     17001     17000     17004     17006
     17001     17000     17004     17007     17002     17000     17004     17005
     17002     17000     17004     17006     17002     17000     17004     17007
     17003     17000     17004     17005     17003     17000     17004     17006
     17003     17000     17004     17007     17004     17007     17013     17010
     17005     17004     17007     17008     17005     17004     17007     17009
     17005     17004     17007     17013     17006     17004     17007     17008
     17006     17004     17007     17009     17006     17004     17007     17013
     17007     17013     17010     17011     17007     17013     17010     17012
     17007     17013     17010     17014     17008     17007     17013     17010
     17009     17007     17013     17010     17010     17014     17015     17016
     17010     17014     17015     17017     17010     17014     17015     17018
     17011     17010     17014     17015     17012     17010     17014     17015
     17013     17010     17014     17015     17014     17015     17018     17019
     17014     17015     17018     17020     17014     17015     17018     17026
     17015     17018     17020     17021     17015     17018     17026     17027
     17015     17018     17026     17028     17015     17018     17026     17029
     17016     17015     17018     17019     17016     17015     17018     17020
     17016     17015     17018     17026     17017     17015     17018     17019
     17017     17015     17018     17020     17017     17015     17018     17026
     17018     17020     17021     17022     17018     17020     17021     17023
     17018     17026     17029     17030     17019     17018     17020     17021
     17019     17018     17026     17027     17019     17018     17026     17028
     17019     17018     17026     17029     17020     17018     17026     17027
     17020     17018     17026     17028     17020     17018     17026     17029
     17020     17021     17023     17024     17020     17021     17023     17025
     17020     17021     17023     17035     17021     17020     17018     17026
     17021     17023     17035     17036     17021     17023     17035     17037
     17021     17023     17035     17038     17022     17021     17023     17024
     17022     17021     17023     17025     17022     17021     17023     17035
     17023     17035     17038     17039     17023     17035     17038     17040
     17023     17035     17038     17041     17024     17023     17035     17036
     17024     17023     17035     17037     17024     17023     17035     17038
     17025     17023     17035     17036     17025     17023     17035     17037
     17025     17023     17035     17038     17026     17029     17030     17031
     17026     17029     17030     17032     17027     17026     17029     17030
     17028     17026     17029     17030     17029     17030     17032     17033
     17029     17030     17032     17034     17029     17030     17032     17082
     17030     17032     17082     17083     17030     17032     17082     17084
     17030     17032     17082     17085     17031     17030     17032     17033
     17031     17030     17032     17034     17031     17030     17032     17082
     17032     17082     17085     17086     17032     17082     17085     17087
     17032     17082     17085     17088     17033     17032     17082     17083
     17033     17032     17082     17084     17033     17032     17082     17085
     17034     17032     17082     17083     17034     17032     17082     17084
     17034     17032     17082     17085     17035     17038     17041     17042
     17035     17038     17041     17043     17036     17035     17038     17039
     17036     17035     17038     17040     17036     17035     17038     17041
     17037     17035     17038     17039     17037     17035     17038     17040
     17037     17035     17038     17041     17038     17041     17043     17044
     17038     17041     17043     17045     17039     17038     17041     17042
     17039     17038     17041     17043     17040     17038     17041     17042
     17040     17038     17041     17043     17041     17043     17045     17046
     17041     17043     17045     17047     17041     17043     17045     17048
     17042     17041     17043     17044     17042     17041     17043     17045
     17043     17045     17048     17049     17043     17045     17048     17050
     17044     17043     17045     17046     17044     17043     17045     17047
     17044     17043     17045     17048     17045     17048     17050     17051
     17045     17048     17050     17052     17046     17045     17048     17049
     17046     17045     17048     17050     17047     17045     17048     17049
     17047     17045     17048     17050     17048     17050     17052     17053
     17048     17050     17052     17054     17048     17050     17052     17055
     17049     17048     17050     17051     17049     17048     17050     17052
     17050     17052     17055     17056     17050     17052     17055     17057
     17051     17050     17052     17053     17051     17050     17052     17054
     17051     17050     17052     17055     17052     17055     17057     17058
     17052     17055     17057     17059     17053     17052     17055     17056
     17053     17052     17055     17057     17054     17052     17055     17056
     17054     17052     17055     17057     17055     17057     17059     17060
     17055     17057     17059     17061     17055     17057     17059     17062
     17056     17055     17057     17058     17056     17055     17057     17059
     17057     17059     17062     17063     17057     17059     17062     17064
     17058     17057     17059     17060     17058     17057     17059     17061
     17058     17057     17059     17062     17059     17062     17064     17065
     17059     17062     17064     17066     17060     17059     17062     17063
     17060     17059     17062     17064     17061     17059     17062     17063
     17061     17059     17062     17064     17062     17064     17066     17067
     17062     17064     17066     17068     17062     17064     17066     17069
     17063     17062     17064     17065     17063     17062     17064     17066
     17064     17066     17069     17070     17064     17066     17069     17071
     17064     17066     17069     17072     17065     17064     17066     17067
     17065     17064     17066     17068     17065     17064     17066     17069
     17066     17069     17072     17073     17066     17069     17072     17074
     17066     17069     17072     17075     17067     17066     17069     17070
     17067     17066     17069     17071     17067     17066     17069     17072
     17068     17066     17069     17070     17068     17066     17069     17071
     17068     17066     17069     17072     17069     17072     17075     17076
     17069     17072     17075     17077     17069     17072     17075     17078
     17070     17069     17072     17073     17070     17069     17072     17074
     17070     17069     17072     17075     17071     17069     17072     17073
     17071     17069     17072     17074     17071     17069     17072     17075
     17072     17075     17078     17079     17072     17075     17078     17080
     17072     17075     17078     17081     17073     17072     17075     17076
     17073     17072     17075     17077     17073     17072     17075     17078
     17074     17072     17075     17076     17074     17072     17075     17077
     17074     17072     17075     17078     17076     17075     17078     17079
     17076     17075     17078     17080     17076     17075     17078     17081
     17077     17075     17078     17079     17077     17075     17078     17080
     17077     17075     17078     17081     17082     17085     17088     17089
     17082     17085     17088     17090     17082     17085     17088     17091
     17083     17082     17085     17086     17083     17082     17085     17087
     17083     17082     17085     17088     17084     17082     17085     17086
     17084     17082     17085     17087     17084     17082     17085     17088
     17085     17088     17091     17092     17085     17088     17091     17093
     17085     17088     17091     17094     17086     17085     17088     17089
     17086     17085     17088     17090     17086     17085     17088     17091
     17087     17085     17088     17089     17087     17085     17088     17090
     17087     17085     17088     17091     17088     17091     17094     17095
     17088     17091     17094     17096     17088     17091     17094     17097
     17089     17088     17091     17092     17089     17088     17091     17093
     17089     17088     17091     17094     17090     17088     17091     17092
     17090     17088     17091     17093     17090     17088     17091     17094
     17091     17094     17097     17098     17091     17094     17097     17099
     17091     17094     17097     17100     17092     17091     17094     17095
     17092     17091     17094     17096     17092     17091     17094     17097
     17093     17091     17094     17095     17093     17091     17094     17096
     17093     17091     17094     17097     17094     17097     17100     17101
     17094     17097     17100     17102     17094     17097     17100     17103
     17095     17094     17097     17098     17095     17094     17097     17099
     17095     17094     17097     17100     17096     17094     17097     17098
     17096     17094     17097     17099     17096     17094     17097     17100
     17097     17100     17103     17104     17097     17100     17103     17105
     17097     17100     17103     17106     17098     17097     17100     17101
     17098     17097     17100     17102     17098     17097     17100     17103
     17099     17097     17100     17101     17099     17097     17100     17102
     17099     17097     17100     17103     17100     17103     17106     17107
     17100     17103     17106     17108     17100     17103     17106     17109
     17101     17100     17103     17104     17101     17100     17103     17105
     17101     17100     17103     17106     17102     17100     17103     17104
     17102     17100     17103     17105     17102     17100     17103     17106
     17103     17106     17109     17110     17103     17106     17109     17111
     17103     17106     17109     17112     17104     17103     17106     17107
     17104     17103     17106     17108     17104     17103     17106     17109
     17105     17103     17106     17107     17105     17103     17106     17108
     17105     17103     17106     17109     17106     17109     17112     17113
     17106     17109     17112     17114     17106     17109     17112     17115
     17107     17106     17109     17110     17107     17106     17109     17111
     17107     17106     17109     17112     17108     17106     17109     17110
     17108     17106     17109     17111     17108     17106     17109     17112
     17109     17112     17115     17116     17109     17112     17115     17117
     17109     17112     17115     17118     17110     17109     17112     17113
     17110     17109     17112     17114     17110     17109     17112     17115
     17111     17109     17112     17113     17111     17109     17112     17114
     17111     17109     17112     17115     17112     17115     17118     17119
     17112     17115     17118     17120     17112     17115     17118     17121
     17113     17112     17115     17116     17113     17112     17115     17117
     17113     17112     17115     17118     17114     17112     17115     17116
     17114     17112     17115     17117     17114     17112     17115     17118
     17115     17118     17121     17122     17115     17118     17121     17123
     17115     17118     17121     17124     17116     17115     17118     17119
     17116     17115     17118     17120     17116     17115     17118     17121
     17117     17115     17118     17119     17117     17115     17118     17120
     17117     17115     17118     17121     17118     17121     17124     17125
     17118     17121     17124     17126     17118     17121     17124     17127
     17119     17118     17121     17122     17119     17118     17121     17123
     17119     17118     17121     17124     17120     17118     17121     17122
     17120     17118     17121     17123     17120     17118     17121     17124
     17121     17124     17127     17128     17121     17124     17127     17129
     17121     17124     17127     17130     17122     17121     17124     17125
     17122     17121     17124     17126     17122     17121     17124     17127
     17123     17121     17124     17125     17123     17121     17124     17126
     17123     17121     17124     17127     17125     17124     17127     17128
     17125     17124     17127     17129     17125     17124     17127     17130
     17126     17124     17127     17128     17126     17124     17127     17129
     17126     17124     17127     17130     21279     21280     21295     21296
     21279     21280     21295     21297     21279     21280     21295     21301
     21280     21279     21283     21284     21280     21279     21283     21285
     21280     21279     21283     21286     21280     21279     21287     21288
     21280     21279     21287     21289     21280     21279     21287     21290
     21280     21279     21291     21292     21280     21279     21291     21293
     21280     21279     21291     21294     21280     21295     21301     21298
     21281     21280     21279     21283     21281     21280     21279     21287
     21281     21280     21279     21291     21281     21280     21295     21296
     21281     21280     21295     21297     21281     21280     21295     21301
     21282     21280     21279     21283     21282     21280     21279     21287
     21282     21280     21279     21291     21282     21280     21295     21296
     21282     21280     21295     21297     21282     21280     21295     21301
     21283     21279     21280     21295     21283     21279     21287     21288
     21283     21279     21287     21289     21283     21279     21287     21290
     21283     21279     21291     21292     21283     21279     21291     21293
     21283     21279     21291     21294     21284     21283     21279     21287
     21284     21283     21279     21291     21285     21283     21279     21287
     21285     21283     21279     21291     21286     21283     21279     21287
     21286     21283     21279     21291     21287     21279     21280     21295
     21287     21279     21291     21292     21287     21279     21291     21293
     21287     21279     21291     21294     21288     21287     21279     21291
     21289     21287     21279     21291     21290     21287     21279     21291
     21291     21279     21280     21295     21295     21301     21298     21299
     21295     21301     21298     21300     21295     21301     21298     21302
     21296     21295     21301     21298     21297     21295     21301     21298
     21298     21302     21303     21304     21298     21302     21303     21305
     21298     21302     21303     21306     21299     21298     21302     21303
     21300     21298     21302     21303     21301     21298     21302     21303
     21302     21303     21306     21307     21302     21303     21306     21308
     21302     21303     21306     21314     21303     21306     21308     21309
     21303     21306     21314     21315     21303     21306     21314     21316
     21303     21306     21314     21317     21304     21303     21306     21307
     21304     21303     21306     21308     21304     21303     21306     21314
     21305     21303     21306     21307     21305     21303     21306     21308
     21305     21303     21306     21314     21306     21308     21309     21310
     21306     21308     21309     21311     21306     21314     21317     21318
     21307     21306     21308     21309     21307     21306     21314     21315
     21307     21306     21314     21316     21307     21306     21314     21317
     21308     21306     21314     21315     21308     21306     21314     21316
     21308     21306     21314     21317     21308     21309     21311     21312
     21308     21309     21311     21313     21308     21309     21311     21323
     21309     21308     21306     21314     21309     21311     21323     21324
     21309     21311     21323     21325     21309     21311     21323     21326
     21310     21309     21311     21312     21310     21309     21311     21313
     21310     21309     21311     21323     21311     21323     21326     21327
     21311     21323     21326     21328     21311     21323     21326     21329
     21312     21311     21323     21324     21312     21311     21323     21325
     21312     21311     21323     21326     21313     21311     21323     21324
     21313     21311     21323     21325     21313     21311     21323     21326
     21314     21317     21318     21319     21314     21317     21318     21320
     21315     21314     21317     21318     21316     21314     21317     21318
     21317     21318     21320     21321     21317     21318     21320     21322
     21317     21318     21320     21370     21318     21320     21370     21371
     21318     21320     21370     21372     21318     21320     21370     21373
     21319     21318     21320     21321     21319     21318     21320     21322
     21319     21318     21320     21370     21320     21370     21373     21374
     21320     21370     21373     21375     21320     21370     21373     21376
     21321     21320     21370     21371     21321     21320     21370     21372
     21321     21320     21370     21373     21322     21320     21370     21371
     21322     21320     21370     21372     21322     21320     21370     21373
     21323     21326     21329     21330     21323     21326     21329     21331
     21323     21326     21329     21332     21324     21323     21326     21327
     21324     21323     21326     21328     21324     21323     21326     21329
     21325     21323     21326     21327     21325     21323     21326     21328
     21325     21323     21326     21329     21326     21329     21332     21333
     21326     21329     21332     21334     21326     21329     21332     21335
     21327     21326     21329     21330     21327     21326     21329     21331
     21327     21326     21329     21332     21328     21326     21329     21330
     21328     21326     21329     21331     21328     21326     21329     21332
     21329     21332     21335     21336     21329     21332     21335     21337
     21329     21332     21335     21338     21330     21329     21332     21333
     21330     21329     21332     21334     21330     21329     21332     21335
     21331     21329     21332     21333     21331     21329     21332     21334
     21331     21329     21332     21335     21332     21335     21338     21339
     21332     21335     21338     21340     21332     21335     21338     21341
     21333     21332     21335     21336     21333     21332     21335     21337
     21333     21332     21335     21338     21334     21332     21335     21336
     21334     21332     21335     21337     21334     21332     21335     21338
     21335     21338     21341     21342     21335     21338     21341     21343
     21336     21335     21338     21339     21336     21335     21338     21340
     21336     21335     21338     21341     21337     21335     21338     21339
     21337     21335     21338     21340     21337     21335     21338     21341
     21338     21341     21343     21344     21338     21341     21343     21345
     21339     21338     21341     21342     21339     21338     21341     21343
     21340     21338     21341     21342     21340     21338     21341     21343
     21341     21343     21345     21346     21341     21343     21345     21347
     21341     21343     21345     21348     21342     21341     21343     21344
     21342     21341     21343     21345     21343     21345     21348     21349
     21343     21345     21348     21350     21343     21345     21348     21351
     21344     21343     21345     21346     21344     21343     21345     21347
     21344     21343     21345     21348     21345     21348     21351     21352
     21345     21348     21351     21353     21345     21348     21351     21354
     21346     21345     21348     21349     21346     21345     21348     21350
     21346     21345     21348     21351     21347     21345     21348     21349
     21347     21345     21348     21350     21347     21345     21348     21351
     21348     21351     21354     21355     21348     21351     21354     21356
     21348     21351     21354     21357     21349     21348     21351     21352
     21349     21348     21351     21353     21349     21348     21351     21354
     21350     21348     21351     21352     21350     21348     21351     21353
     21350     21348     21351     21354     21351     21354     21357     21358
     21351     21354     21357     21359     21351     21354     21357     21360
     21352     21351     21354     21355     21352     21351     21354     21356
     21352     21351     21354     21357     21353     21351     21354     21355
     21353     21351     21354     21356     21353     21351     21354     21357
     21354     21357     21360     21361     21354     21357     21360     21362
     21354     21357     21360     21363     21355     21354     21357     21358
     21355     21354     21357     21359     21355     21354     21357     21360
     21356     21354     21357     21358     21356     21354     21357     21359
     21356     21354     21357     21360     21357     21360     21363     21364
     21357     21360     21363     21365     21357     21360     21363     21366
     21358     21357     21360     21361     21358     21357     21360     21362
     21358     21357     21360     21363     21359     21357     21360     21361
     21359     21357     21360     21362     21359     21357     21360     21363
     21360     21363     21366     21367     21360     21363     21366     21368
     21360     21363     21366     21369     21361     21360     21363     21364
     21361     21360     21363     21365     21361     21360     21363     21366
     21362     21360     21363     21364     21362     21360     21363     21365
     21362     21360     21363     21366     21364     21363     21366     21367
     21364     21363     21366     21368     21364     21363     21366     21369
     21365     21363     21366     21367     21365     21363     21366     21368
     21365     21363     21366     21369     21370     21373     21376     21377
     21370     21373     21376     21378     21370     21373     21376     21379
     21371     21370     21373     21374     21371     21370     21373     21375
     21371     21370     21373     21376     21372     21370     21373     21374
     21372     21370     21373     21375     21372     21370     21373     21376
     21373     21376     21379     21380     21373     21376     21379     21381
     21373     21376     21379     21382     21374     21373     21376     21377
     21374     21373     21376     21378     21374     21373     21376     21379
     21375     21373     21376     21377     21375     21373     21376     21378
     21375     21373     21376     21379     21376     21379     21382     21383
     21376     21379     21382     21384     21376     21379     21382     21385
     21377     21376     21379     21380     21377     21376     21379     21381
     21377     21376     21379     21382     21378     21376     21379     21380
     21378     21376     21379     21381     21378     21376     21379     21382
     21379     21382     21385     21386     21379     21382     21385     21387
     21379     21382     21385     21388     21380     21379     21382     21383
     21380     21379     21382     21384     21380     21379     21382     21385
     21381     21379     21382     21383     21381     21379     21382     21384
     21381     21379     21382     21385     21382     21385     21388     21389
     21382     21385     21388     21390     21382     21385     21388     21391
     21383     21382     21385     21386     21383     21382     21385     21387
     21383     21382     21385     21388     21384     21382     21385     21386
     21384     21382     21385     21387     21384     21382     21385     21388
     21385     21388     21391     21392     21385     21388     21391     21393
     21385     21388     21391     21394     21386     21385     21388     21389
     21386     21385     21388     21390     21386     21385     21388     21391
     21387     21385     21388     21389     21387     21385     21388     21390
     21387     21385     21388     21391     21388     21391     21394     21395
     21388     21391     21394     21396     21388     21391     21394     21397
     21389     21388     21391     21392     21389     21388     21391     21393
     21389     21388     21391     21394     21390     21388     21391     21392
     21390     21388     21391     21393     21390     21388     21391     21394
     21391     21394     21397     21398     21391     21394     21397     21399
     21391     21394     21397     21400     21392     21391     21394     21395
     21392     21391     21394     21396     21392     21391     21394     21397
     21393     21391     21394     21395     21393     21391     21394     21396
     21393     21391     21394     21397     21394     21397     21400     21401
     21394     21397     21400     21402     21394     21397     21400     21403
     21395     21394     21397     21398     21395     21394     21397     21399
     21395     21394     21397     21400     21396     21394     21397     21398
     21396     21394     21397     21399     21396     21394     21397     21400
     21397     21400     21403     21404     21397     21400     21403     21405
     21397     21400     21403     21406     21398     21397     21400     21401
     21398     21397     21400     21402     21398     21397     21400     21403
     21399     21397     21400     21401     21399     21397     21400     21402
     21399     21397     21400     21403     21400     21403     21406     21407
     21400     21403     21406     21408     21400     21403     21406     21409
     21401     21400     21403     21404     21401     21400     21403     21405
     21401     21400     21403     21406     21402     21400     21403     21404
     21402     21400     21403     21405     21402     21400     21403     21406
     21403     21406     21409     21410     21403     21406     21409     21411
     21403     21406     21409     21412     21404     21403     21406     21407
     21404     21403     21406     21408     21404     21403     21406     21409
     21405     21403     21406     21407     21405     21403     21406     21408
     21405     21403     21406     21409     21407     21406     21409     21410
     21407     21406     21409     21411     21407     21406     21409     21412
     21408     21406     21409     21410     21408     21406     21409     21411
     21408     21406     21409     21412     12022     12035     12038     12039
     12022     12035     12038     12040     12022     12035     12038     12045
     12023     12022     12027     12028     12023     12022     12027     12029
     12023     12022     12027     12030     12023     12022     12031     12032
     12023     12022     12031     12033     12023     12022     12031     12034
     12023     12022     12035     12036     12023     12022     12035     12037
     12023     12022     12035     12038     12024     12023     12022     12027
     12024     12023     12022     12031     12024     12023     12022     12035
     12025     12023     12022     12027     12025     12023     12022     12031
     12025     12023     12022     12035     12026     12023     12022     12027
     12026     12023     12022     12031     12026     12023     12022     12035
     12027     12022     12031     12032     12027     12022     12031     12033
     12027     12022     12031     12034     12027     12022     12035     12036
     12027     12022     12035     12037     12027     12022     12035     12038
     12028     12027     12022     12031     12028     12027     12022     12035
     12029     12027     12022     12031     12029     12027     12022     12035
     12030     12027     12022     12031     12030     12027     12022     12035
     12031     12022     12035     12036     12031     12022     12035     12037
     12031     12022     12035     12038     12032     12031     12022     12035
     12033     12031     12022     12035     12034     12031     12022     12035
     12035     12038     12045     12041     12036     12035     12038     12039
     12036     12035     12038     12040     12036     12035     12038     12045
     12037     12035     12038     12039     12037     12035     12038     12040
     12037     12035     12038     12045     12038     12045     12041     12042
     12038     12045     12041     12043     12038     12045     12041     12044
     12039     12038     12045     12041     12040     12038     12045     12041
     12041     12044     12046     12047     12041     12044     12046     12048
     12041     12044     12046     12051     12042     12041     12044     12046
     12043     12041     12044     12046     12044     12046     12051     12049
     12044     12046     12051     12052     12044     12046     12051     12053
     12045     12041     12044     12046     12046     12051     12049     12050
     12046     12051     12049     12101     12046     12051     12053     12054
     12046     12051     12053     12055     12046     12051     12053     12057
     12047     12046     12051     12049     12047     12046     12051     12052
     12047     12046     12051     12053     12048     12046     12051     12049
     12048     12046     12051     12052     12048     12046     12051     12053
     12049     12051     12053     12054     12049     12051     12053     12055
     12049     12051     12053     12057     12049     12101     12103     12104
     12049     12101     12103     12105     12049     12101     12103     12106
     12050     12049     12051     12052     12050     12049     12051     12053
     12050     12049     12101     12102     12050     12049     12101     12103
     12051     12049     12101     12102     12051     12049     12101     12103
     12051     12053     12055     12056     12051     12053     12057     12058
     12051     12053     12057     12059     12052     12051     12049     12101
     12052     12051     12053     12054     12052     12051     12053     12055
     12052     12051     12053     12057     12053     12051     12049     12101
     12053     12057     12059     12060     12053     12057     12059     12061
     12054     12053     12055     12056     12054     12053     12057     12058
     12054     12053     12057     12059     12055     12053     12057     12058
     12055     12053     12057     12059     12056     12055     12053     12057
     12057     12059     12061     12062     12057     12059     12061     12063
     12057     12059     12061     12064     12058     12057     12059     12060
     12058     12057     12059     12061     12059     12061     12064     12065
     12059     12061     12064     12066     12059     12061     12064     12067
     12060     12059     12061     12062     12060     12059     12061     12063
     12060     12059     12061     12064     12061     12064     12067     12068
     12061     12064     12067     12069     12061     12064     12067     12070
     12062     12061     12064     12065     12062     12061     12064     12066
     12062     12061     12064     12067     12063     12061     12064     12065
     12063     12061     12064     12066     12063     12061     12064     12067
     12064     12067     12070     12071     12064     12067     12070     12072
     12064     12067     12070     12073     12065     12064     12067     12068
     12065     12064     12067     12069     12065     12064     12067     12070
     12066     12064     12067     12068     12066     12064     12067     12069
     12066     12064     12067     12070     12067     12070     12073     12074
     12067     12070     12073     12075     12067     12070     12073     12076
     12068     12067     12070     12071     12068     12067     12070     12072
     12068     12067     12070     12073     12069     12067     12070     12071
     12069     12067     12070     12072     12069     12067     12070     12073
     12070     12073     12076     12077     12070     12073     12076     12078
     12070     12073     12076     12079     12071     12070     12073     12074
     12071     12070     12073     12075     12071     12070     12073     12076
     12072     12070     12073     12074     12072     12070     12073     12075
     12072     12070     12073     12076     12073     12076     12079     12080
     12073     12076     12079     12081     12073     12076     12079     12082
     12074     12073     12076     12077     12074     12073     12076     12078
     12074     12073     12076     12079     12075     12073     12076     12077
     12075     12073     12076     12078     12075     12073     12076     12079
     12076     12079     12082     12083     12076     12079     12082     12084
     12076     12079     12082     12085     12077     12076     12079     12080
     12077     12076     12079     12081     12077     12076     12079     12082
     12078     12076     12079     12080     12078     12076     12079     12081
     12078     12076     12079     12082     12079     12082     12085     12086
     12079     12082     12085     12087     12079     12082     12085     12088
     12080     12079     12082     12083     12080     12079     12082     12084
     12080     12079     12082     12085     12081     12079     12082     12083
     12081     12079     12082     12084     12081     12079     12082     12085
     12082     12085     12088     12089     12082     12085     12088     12090
     12082     12085     12088     12091     12083     12082     12085     12086
     12083     12082     12085     12087     12083     12082     12085     12088
     12084     12082     12085     12086     12084     12082     12085     12087
     12084     12082     12085     12088     12085     12088     12091     12092
     12085     12088     12091     12093     12085     12088     12091     12094
     12086     12085     12088     12089     12086     12085     12088     12090
     12086     12085     12088     12091     12087     12085     12088     12089
     12087     12085     12088     12090     12087     12085     12088     12091
     12088     12091     12094     12095     12088     12091     12094     12096
     12088     12091     12094     12097     12089     12088     12091     12092
     12089     12088     12091     12093     12089     12088     12091     12094
     12090     12088     12091     12092     12090     12088     12091     12093
     12090     12088     12091     12094     12091     12094     12097     12098
     12091     12094     12097     12099     12091     12094     12097     12100
     12092     12091     12094     12095     12092     12091     12094     12096
     12092     12091     12094     12097     12093     12091     12094     12095
     12093     12091     12094     12096     12093     12091     12094     12097
     12095     12094     12097     12098     12095     12094     12097     12099
     12095     12094     12097     12100     12096     12094     12097     12098
     12096     12094     12097     12099     12096     12094     12097     12100
     12101     12103     12106     12107     12101     12103     12106     12108
     12101     12103     12106     12109     12102     12101     12103     12104
     12102     12101     12103     12105     12102     12101     12103     12106
     12103     12106     12109     12110     12103     12106     12109     12111
     12103     12106     12109     12112     12104     12103     12106     12107
     12104     12103     12106     12108     12104     12103     12106     12109
     12105     12103     12106     12107     12105     12103     12106     12108
     12105     12103     12106     12109     12106     12109     12112     12113
     12106     12109     12112     12114     12106     12109     12112     12115
     12107     12106     12109     12110     12107     12106     12109     12111
     12107     12106     12109     12112     12108     12106     12109     12110
     12108     12106     12109     12111     12108     12106     12109     12112
     12109     12112     12115     12116     12109     12112     12115     12117
     12109     12112     12115     12118     12110     12109     12112     12113
     12110     12109     12112     12114     12110     12109     12112     12115
     12111     12109     12112     12113     12111     12109     12112     12114
     12111     12109     12112     12115     12112     12115     12118     12119
     12112     12115     12118     12120     12112     12115     12118     12121
     12113     12112     12115     12116     12113     12112     12115     12117
     12113     12112     12115     12118     12114     12112     12115     12116
     12114     12112     12115     12117     12114     12112     12115     12118
     12115     12118     12121     12122     12115     12118     12121     12123
     12115     12118     12121     12124     12116     12115     12118     12119
     12116     12115     12118     12120     12116     12115     12118     12121
     12117     12115     12118     12119     12117     12115     12118     12120
     12117     12115     12118     12121     12118     12121     12124     12125
     12118     12121     12124     12126     12119     12118     12121     12122
     12119     12118     12121     12123     12119     12118     12121     12124
     12120     12118     12121     12122     12120     12118     12121     12123
     12120     12118     12121     12124     12121     12124     12126     12127
     12121     12124     12126     12128     12122     12121     12124     12125
     12122     12121     12124     12126     12123     12121     12124     12125
     12123     12121     12124     12126     12124     12126     12128     12129
     12124     12126     12128     12130     12124     12126     12128     12131
     12125     12124     12126     12127     12125     12124     12126     12128
     12126     12128     12131     12132     12126     12128     12131     12133
     12126     12128     12131     12134     12127     12126     12128     12129
     12127     12126     12128     12130     12127     12126     12128     12131
     12128     12131     12134     12135     12128     12131     12134     12136
     12128     12131     12134     12137     12129     12128     12131     12132
     12129     12128     12131     12133     12129     12128     12131     12134
     12130     12128     12131     12132     12130     12128     12131     12133
     12130     12128     12131     12134     12131     12134     12137     12138
     12131     12134     12137     12139     12131     12134     12137     12140
     12132     12131     12134     12135     12132     12131     12134     12136
     12132     12131     12134     12137     12133     12131     12134     12135
     12133     12131     12134     12136     12133     12131     12134     12137
     12134     12137     12140     12141     12134     12137     12140     12142
     12134     12137     12140     12143     12135     12134     12137     12138
     12135     12134     12137     12139     12135     12134     12137     12140
     12136     12134     12137     12138     12136     12134     12137     12139
     12136     12134     12137     12140     12137     12140     12143     12144
     12137     12140     12143     12145     12137     12140     12143     12146
     12138     12137     12140     12141     12138     12137     12140     12142
     12138     12137     12140     12143     12139     12137     12140     12141
     12139     12137     12140     12142     12139     12137     12140     12143
     12140     12143     12146     12147     12140     12143     12146     12148
     12140     12143     12146     12149     12141     12140     12143     12144
     12141     12140     12143     12145     12141     12140     12143     12146
     12142     12140     12143     12144     12142     12140     12143     12145
     12142     12140     12143     12146     12143     12146     12149     12150
     12143     12146     12149     12151     12143     12146     12149     12152
     12144     12143     12146     12147     12144     12143     12146     12148
     12144     12143     12146     12149     12145     12143     12146     12147
     12145     12143     12146     12148     12145     12143     12146     12149
     12147     12146     12149     12150     12147     12146     12149     12151
     12147     12146     12149     12152     12148     12146     12149     12150
     12148     12146     12149     12151     12148     12146     12149     12152
     12153     12166     12169     12170     12153     12166     12169     12171
     12153     12166     12169     12176     12154     12153     12158     12159
     12154     12153     12158     12160     12154     12153     12158     12161
     12154     12153     12162     12163     12154     12153     12162     12164
     12154     12153     12162     12165     12154     12153     12166     12167
     12154     12153     12166     12168     12154     12153     12166     12169
     12155     12154     12153     12158     12155     12154     12153     12162
     12155     12154     12153     12166     12156     12154     12153     12158
     12156     12154     12153     12162     12156     12154     12153     12166
     12157     12154     12153     12158     12157     12154     12153     12162
     12157     12154     12153     12166     12158     12153     12162     12163
     12158     12153     12162     12164     12158     12153     12162     12165
     12158     12153     12166     12167     12158     12153     12166     12168
     12158     12153     12166     12169     12159     12158     12153     12162
     12159     12158     12153     12166     12160     12158     12153     12162
     12160     12158     12153     12166     12161     12158     12153     12162
     12161     12158     12153     12166     12162     12153     12166     12167
     12162     12153     12166     12168     12162     12153     12166     12169
     12163     12162     12153     12166     12164     12162     12153     12166
     12165     12162     12153     12166     12166     12169     12176     12172
     12167     12166     12169     12170     12167     12166     12169     12171
     12167     12166     12169     12176     12168     12166     12169     12170
     12168     12166     12169     12171     12168     12166     12169     12176
     12169     12176     12172     12173     12169     12176     12172     12174
     12169     12176     12172     12175     12170     12169     12176     12172
     12171     12169     12176     12172     12172     12175     12177     12178
     12172     12175     12177     12179     12172     12175     12177     12182
     12173     12172     12175     12177     12174     12172     12175     12177
     12175     12177     12182     12180     12175     12177     12182     12183
     12175     12177     12182     12184     12176     12172     12175     12177
     12177     12182     12180     12181     12177     12182     12180     12232
     12177     12182     12184     12185     12177     12182     12184     12186
     12177     12182     12184     12188     12178     12177     12182     12180
     12178     12177     12182     12183     12178     12177     12182     12184
     12179     12177     12182     12180     12179     12177     12182     12183
     12179     12177     12182     12184     12180     12182     12184     12185
     12180     12182     12184     12186     12180     12182     12184     12188
     12180     12232     12234     12235     12180     12232     12234     12236
     12180     12232     12234     12237     12181     12180     12182     12183
     12181     12180     12182     12184     12181     12180     12232     12233
     12181     12180     12232     12234     12182     12180     12232     12233
     12182     12180     12232     12234     12182     12184     12186     12187
     12182     12184     12188     12189     12182     12184     12188     12190
     12183     12182     12180     12232     12183     12182     12184     12185
     12183     12182     12184     12186     12183     12182     12184     12188
     12184     12182     12180     12232     12184     12188     12190     12191
     12184     12188     12190     12192     12185     12184     12186     12187
     12185     12184     12188     12189     12185     12184     12188     12190
     12186     12184     12188     12189     12186     12184     12188     12190
     12187     12186     12184     12188     12188     12190     12192     12193
     12188     12190     12192     12194     12188     12190     12192     12195
     12189     12188     12190     12191     12189     12188     12190     12192
     12190     12192     12195     12196     12190     12192     12195     12197
     12190     12192     12195     12198     12191     12190     12192     12193
     12191     12190     12192     12194     12191     12190     12192     12195
     12192     12195     12198     12199     12192     12195     12198     12200
     12192     12195     12198     12201     12193     12192     12195     12196
     12193     12192     12195     12197     12193     12192     12195     12198
     12194     12192     12195     12196     12194     12192     12195     12197
     12194     12192     12195     12198     12195     12198     12201     12202
     12195     12198     12201     12203     12195     12198     12201     12204
     12196     12195     12198     12199     12196     12195     12198     12200
     12196     12195     12198     12201     12197     12195     12198     12199
     12197     12195     12198     12200     12197     12195     12198     12201
     12198     12201     12204     12205     12198     12201     12204     12206
     12198     12201     12204     12207     12199     12198     12201     12202
     12199     12198     12201     12203     12199     12198     12201     12204
     12200     12198     12201     12202     12200     12198     12201     12203
     12200     12198     12201     12204     12201     12204     12207     12208
     12201     12204     12207     12209     12201     12204     12207     12210
     12202     12201     12204     12205     12202     12201     12204     12206
     12202     12201     12204     12207     12203     12201     12204     12205
     12203     12201     12204     12206     12203     12201     12204     12207
     12204     12207     12210     12211     12204     12207     12210     12212
     12204     12207     12210     12213     12205     12204     12207     12208
     12205     12204     12207     12209     12205     12204     12207     12210
     12206     12204     12207     12208     12206     12204     12207     12209
     12206     12204     12207     12210     12207     12210     12213     12214
     12207     12210     12213     12215     12207     12210     12213     12216
     12208     12207     12210     12211     12208     12207     12210     12212
     12208     12207     12210     12213     12209     12207     12210     12211
     12209     12207     12210     12212     12209     12207     12210     12213
     12210     12213     12216     12217     12210     12213     12216     12218
     12210     12213     12216     12219     12211     12210     12213     12214
     12211     12210     12213     12215     12211     12210     12213     12216
     12212     12210     12213     12214     12212     12210     12213     12215
     12212     12210     12213     12216     12213     12216     12219     12220
     12213     12216     12219     12221     12213     12216     12219     12222
     12214     12213     12216     12217     12214     12213     12216     12218
     12214     12213     12216     12219     12215     12213     12216     12217
     12215     12213     12216     12218     12215     12213     12216     12219
     12216     12219     12222     12223     12216     12219     12222     12224
     12216     12219     12222     12225     12217     12216     12219     12220
     12217     12216     12219     12221     12217     12216     12219     12222
     12218     12216     12219     12220     12218     12216     12219     12221
     12218     12216     12219     12222     12219     12222     12225     12226
     12219     12222     12225     12227     12219     12222     12225     12228
     12220     12219     12222     12223     12220     12219     12222     12224
     12220     12219     12222     12225     12221     12219     12222     12223
     12221     12219     12222     12224     12221     12219     12222     12225
     12222     12225     12228     12229     12222     12225     12228     12230
     12222     12225     12228     12231     12223     12222     12225     12226
     12223     12222     12225     12227     12223     12222     12225     12228
     12224     12222     12225     12226     12224     12222     12225     12227
     12224     12222     12225     12228     12226     12225     12228     12229
     12226     12225     12228     12230     12226     12225     12228     12231
     12227     12225     12228     12229     12227     12225     12228     12230
     12227     12225     12228     12231     12232     12234     12237     12238
     12232     12234     12237     12239     12232     12234     12237     12240
     12233     12232     12234     12235     12233     12232     12234     12236
     12233     12232     12234     12237     12234     12237     12240     12241
     12234     12237     12240     12242     12234     12237     12240     12243
     12235     12234     12237     12238     12235     12234     12237     12239
     12235     12234     12237     12240     12236     12234     12237     12238
     12236     12234     12237     12239     12236     12234     12237     12240
     12237     12240     12243     12244     12237     12240     12243     12245
     12237     12240     12243     12246     12238     12237     12240     12241
     12238     12237     12240     12242     12238     12237     12240     12243
     12239     12237     12240     12241     12239     12237     12240     12242
     12239     12237     12240     12243     12240     12243     12246     12247
     12240     12243     12246     12248     12240     12243     12246     12249
     12241     12240     12243     12244     12241     12240     12243     12245
     12241     12240     12243     12246     12242     12240     12243     12244
     12242     12240     12243     12245     12242     12240     12243     12246
     12243     12246     12249     12250     12243     12246     12249     12251
     12243     12246     12249     12252     12244     12243     12246     12247
     12244     12243     12246     12248     12244     12243     12246     12249
     12245     12243     12246     12247     12245     12243     12246     12248
     12245     12243     12246     12249     12246     12249     12252     12253
     12246     12249     12252     12254     12246     12249     12252     12255
     12247     12246     12249     12250     12247     12246     12249     12251
     12247     12246     12249     12252     12248     12246     12249     12250
     12248     12246     12249     12251     12248     12246     12249     12252
     12249     12252     12255     12256     12249     12252     12255     12257
     12250     12249     12252     12253     12250     12249     12252     12254
     12250     12249     12252     12255     12251     12249     12252     12253
     12251     12249     12252     12254     12251     12249     12252     12255
     12252     12255     12257     12258     12252     12255     12257     12259
     12253     12252     12255     12256     12253     12252     12255     12257
     12254     12252     12255     12256     12254     12252     12255     12257
     12255     12257     12259     12260     12255     12257     12259     12261
     12255     12257     12259     12262     12256     12255     12257     12258
     12256     12255     12257     12259     12257     12259     12262     12263
     12257     12259     12262     12264     12257     12259     12262     12265
     12258     12257     12259     12260     12258     12257     12259     12261
     12258     12257     12259     12262     12259     12262     12265     12266
     12259     12262     12265     12267     12259     12262     12265     12268
     12260     12259     12262     12263     12260     12259     12262     12264
     12260     12259     12262     12265     12261     12259     12262     12263
     12261     12259     12262     12264     12261     12259     12262     12265
     12262     12265     12268     12269     12262     12265     12268     12270
     12262     12265     12268     12271     12263     12262     12265     12266
     12263     12262     12265     12267     12263     12262     12265     12268
     12264     12262     12265     12266     12264     12262     12265     12267
     12264     12262     12265     12268     12265     12268     12271     12272
     12265     12268     12271     12273     12265     12268     12271     12274
     12266     12265     12268     12269     12266     12265     12268     12270
     12266     12265     12268     12271     12267     12265     12268     12269
     12267     12265     12268     12270     12267     12265     12268     12271
     12268     12271     12274     12275     12268     12271     12274     12276
     12268     12271     12274     12277     12269     12268     12271     12272
     12269     12268     12271     12273     12269     12268     12271     12274
     12270     12268     12271     12272     12270     12268     12271     12273
     12270     12268     12271     12274     12271     12274     12277     12278
     12271     12274     12277     12279     12271     12274     12277     12280
     12272     12271     12274     12275     12272     12271     12274     12276
     12272     12271     12274     12277     12273     12271     12274     12275
     12273     12271     12274     12276     12273     12271     12274     12277
     12274     12277     12280     12281     12274     12277     12280     12282
     12274     12277     12280     12283     12275     12274     12277     12278
     12275     12274     12277     12279     12275     12274     12277     12280
     12276     12274     12277     12278     12276     12274     12277     12279
     12276     12274     12277     12280     12278     12277     12280     12281
     12278     12277     12280     12282     12278     12277     12280     12283
     12279     12277     12280     12281     12279     12277     12280     12282
     12279     12277     12280     12283     12284     12297     12300     12301
     12284     12297     12300     12302     12284     12297     12300     12307
     12285     12284     12289     12290     12285     12284     12289     12291
     12285     12284     12289     12292     12285     12284     12293     12294
     12285     12284     12293     12295     12285     12284     12293     12296
     12285     12284     12297     12298     12285     12284     12297     12299
     12285     12284     12297     12300     12286     12285     12284     12289
     12286     12285     12284     12293     12286     12285     12284     12297
     12287     12285     12284     12289     12287     12285     12284     12293
     12287     12285     12284     12297     12288     12285     12284     12289
     12288     12285     12284     12293     12288     12285     12284     12297
     12289     12284     12293     12294     12289     12284     12293     12295
     12289     12284     12293     12296     12289     12284     12297     12298
     12289     12284     12297     12299     12289     12284     12297     12300
     12290     12289     12284     12293     12290     12289     12284     12297
     12291     12289     12284     12293     12291     12289     12284     12297
     12292     12289     12284     12293     12292     12289     12284     12297
     12293     12284     12297     12298     12293     12284     12297     12299
     12293     12284     12297     12300     12294     12293     12284     12297
     12295     12293     12284     12297     12296     12293     12284     12297
     12297     12300     12307     12303     12298     12297     12300     12301
     12298     12297     12300     12302     12298     12297     12300     12307
     12299     12297     12300     12301     12299     12297     12300     12302
     12299     12297     12300     12307     12300     12307     12303     12304
     12300     12307     12303     12305     12300     12307     12303     12306
     12301     12300     12307     12303     12302     12300     12307     12303
     12303     12306     12308     12309     12303     12306     12308     12310
     12303     12306     12308     12313     12304     12303     12306     12308
     12305     12303     12306     12308     12306     12308     12313     12311
     12306     12308     12313     12314     12306     12308     12313     12315
     12307     12303     12306     12308     12308     12313     12311     12312
     12308     12313     12311     12363     12308     12313     12315     12316
     12308     12313     12315     12317     12308     12313     12315     12319
     12309     12308     12313     12311     12309     12308     12313     12314
     12309     12308     12313     12315     12310     12308     12313     12311
     12310     12308     12313     12314     12310     12308     12313     12315
     12311     12313     12315     12316     12311     12313     12315     12317
     12311     12313     12315     12319     12311     12363     12365     12366
     12311     12363     12365     12367     12311     12363     12365     12368
     12312     12311     12313     12314     12312     12311     12313     12315
     12312     12311     12363     12364     12312     12311     12363     12365
     12313     12311     12363     12364     12313     12311     12363     12365
     12313     12315     12317     12318     12313     12315     12319     12320
     12313     12315     12319     12321     12314     12313     12311     12363
     12314     12313     12315     12316     12314     12313     12315     12317
     12314     12313     12315     12319     12315     12313     12311     12363
     12315     12319     12321     12322     12315     12319     12321     12323
     12316     12315     12317     12318     12316     12315     12319     12320
     12316     12315     12319     12321     12317     12315     12319     12320
     12317     12315     12319     12321     12318     12317     12315     12319
     12319     12321     12323     12324     12319     12321     12323     12325
     12319     12321     12323     12326     12320     12319     12321     12322
     12320     12319     12321     12323     12321     12323     12326     12327
     12321     12323     12326     12328     12321     12323     12326     12329
     12322     12321     12323     12324     12322     12321     12323     12325
     12322     12321     12323     12326     12323     12326     12329     12330
     12323     12326     12329     12331     12323     12326     12329     12332
     12324     12323     12326     12327     12324     12323     12326     12328
     12324     12323     12326     12329     12325     12323     12326     12327
     12325     12323     12326     12328     12325     12323     12326     12329
     12326     12329     12332     12333     12326     12329     12332     12334
     12326     12329     12332     12335     12327     12326     12329     12330
     12327     12326     12329     12331     12327     12326     12329     12332
     12328     12326     12329     12330     12328     12326     12329     12331
     12328     12326     12329     12332     12329     12332     12335     12336
     12329     12332     12335     12337     12329     12332     12335     12338
     12330     12329     12332     12333     12330     12329     12332     12334
     12330     12329     12332     12335     12331     12329     12332     12333
     12331     12329     12332     12334     12331     12329     12332     12335
     12332     12335     12338     12339     12332     12335     12338     12340
     12332     12335     12338     12341     12333     12332     12335     12336
     12333     12332     12335     12337     12333     12332     12335     12338
     12334     12332     12335     12336     12334     12332     12335     12337
     12334     12332     12335     12338     12335     12338     12341     12342
     12335     12338     12341     12343     12335     12338     12341     12344
     12336     12335     12338     12339     12336     12335     12338     12340
     12336     12335     12338     12341     12337     12335     12338     12339
     12337     12335     12338     12340     12337     12335     12338     12341
     12338     12341     12344     12345     12338     12341     12344     12346
     12338     12341     12344     12347     12339     12338     12341     12342
     12339     12338     12341     12343     12339     12338     12341     12344
     12340     12338     12341     12342     12340     12338     12341     12343
     12340     12338     12341     12344     12341     12344     12347     12348
     12341     12344     12347     12349     12341     12344     12347     12350
     12342     12341     12344     12345     12342     12341     12344     12346
     12342     12341     12344     12347     12343     12341     12344     12345
     12343     12341     12344     12346     12343     12341     12344     12347
     12344     12347     12350     12351     12344     12347     12350     12352
     12344     12347     12350     12353     12345     12344     12347     12348
     12345     12344     12347     12349     12345     12344     12347     12350
     12346     12344     12347     12348     12346     12344     12347     12349
     12346     12344     12347     12350     12347     12350     12353     12354
     12347     12350     12353     12355     12347     12350     12353     12356
     12348     12347     12350     12351     12348     12347     12350     12352
     12348     12347     12350     12353     12349     12347     12350     12351
     12349     12347     12350     12352     12349     12347     12350     12353
     12350     12353     12356     12357     12350     12353     12356     12358
     12350     12353     12356     12359     12351     12350     12353     12354
     12351     12350     12353     12355     12351     12350     12353     12356
     12352     12350     12353     12354     12352     12350     12353     12355
     12352     12350     12353     12356     12353     12356     12359     12360
     12353     12356     12359     12361     12353     12356     12359     12362
     12354     12353     12356     12357     12354     12353     12356     12358
     12354     12353     12356     12359     12355     12353     12356     12357
     12355     12353     12356     12358     12355     12353     12356     12359
     12357     12356     12359     12360     12357     12356     12359     12361
     12357     12356     12359     12362     12358     12356     12359     12360
     12358     12356     12359     12361     12358     12356     12359     12362
     12363     12365     12368     12369     12363     12365     12368     12370
     12363     12365     12368     12371     12364     12363     12365     12366
     12364     12363     12365     12367     12364     12363     12365     12368
     12365     12368     12371     12372     12365     12368     12371     12373
     12365     12368     12371     12374     12366     12365     12368     12369
     12366     12365     12368     12370     12366     12365     12368     12371
     12367     12365     12368     12369     12367     12365     12368     12370
     12367     12365     12368     12371     12368     12371     12374     12375
     12368     12371     12374     12376     12368     12371     12374     12377
     12369     12368     12371     12372     12369     12368     12371     12373
     12369     12368     12371     12374     12370     12368     12371     12372
     12370     12368     12371     12373     12370     12368     12371     12374
     12371     12374     12377     12378     12371     12374     12377     12379
     12371     12374     12377     12380     12372     12371     12374     12375
     12372     12371     12374     12376     12372     12371     12374     12377
     12373     12371     12374     12375     12373     12371     12374     12376
     12373     12371     12374     12377     12374     12377     12380     12381
     12374     12377     12380     12382     12374     12377     12380     12383
     12375     12374     12377     12378     12375     12374     12377     12379
     12375     12374     12377     12380     12376     12374     12377     12378
     12376     12374     12377     12379     12376     12374     12377     12380
     12377     12380     12383     12384     12377     12380     12383     12385
     12377     12380     12383     12386     12378     12377     12380     12381
     12378     12377     12380     12382     12378     12377     12380     12383
     12379     12377     12380     12381     12379     12377     12380     12382
     12379     12377     12380     12383     12380     12383     12386     12387
     12380     12383     12386     12388     12381     12380     12383     12384
     12381     12380     12383     12385     12381     12380     12383     12386
     12382     12380     12383     12384     12382     12380     12383     12385
     12382     12380     12383     12386     12383     12386     12388     12389
     12383     12386     12388     12390     12384     12383     12386     12387
     12384     12383     12386     12388     12385     12383     12386     12387
     12385     12383     12386     12388     12386     12388     12390     12391
     12386     12388     12390     12392     12386     12388     12390     12393
     12387     12386     12388     12389     12387     12386     12388     12390
     12388     12390     12393     12394     12388     12390     12393     12395
     12388     12390     12393     12396     12389     12388     12390     12391
     12389     12388     12390     12392     12389     12388     12390     12393
     12390     12393     12396     12397     12390     12393     12396     12398
     12390     12393     12396     12399     12391     12390     12393     12394
     12391     12390     12393     12395     12391     12390     12393     12396
     12392     12390     12393     12394     12392     12390     12393     12395
     12392     12390     12393     12396     12393     12396     12399     12400
     12393     12396     12399     12401     12393     12396     12399     12402
     12394     12393     12396     12397     12394     12393     12396     12398
     12394     12393     12396     12399     12395     12393     12396     12397
     12395     12393     12396     12398     12395     12393     12396     12399
     12396     12399     12402     12403     12396     12399     12402     12404
     12396     12399     12402     12405     12397     12396     12399     12400
     12397     12396     12399     12401     12397     12396     12399     12402
     12398     12396     12399     12400     12398     12396     12399     12401
     12398     12396     12399     12402     12399     12402     12405     12406
     12399     12402     12405     12407     12399     12402     12405     12408
     12400     12399     12402     12403     12400     12399     12402     12404
     12400     12399     12402     12405     12401     12399     12402     12403
     12401     12399     12402     12404     12401     12399     12402     12405
     12402     12405     12408     12409     12402     12405     12408     12410
     12402     12405     12408     12411     12403     12402     12405     12406
     12403     12402     12405     12407     12403     12402     12405     12408
     12404     12402     12405     12406     12404     12402     12405     12407
     12404     12402     12405     12408     12405     12408     12411     12412
     12405     12408     12411     12413     12405     12408     12411     12414
     12406     12405     12408     12409     12406     12405     12408     12410
     12406     12405     12408     12411     12407     12405     12408     12409
     12407     12405     12408     12410     12407     12405     12408     12411
     12409     12408     12411     12412     12409     12408     12411     12413
     12409     12408     12411     12414     12410     12408     12411     12412
     12410     12408     12411     12413     12410     12408     12411     12414
      8517      8518      8533      8534      8517      8518      8533      8535
      8517      8518      8533      8539      8518      8517      8521      8522
      8518      8517      8521      8523      8518      8517      8521      8524
      8518      8517      8525      8526      8518      8517      8525      8527
      8518      8517      8525      8528      8518      8517      8529      8530
      8518      8517      8529      8531      8518      8517      8529      8532
      8518      8533      8539      8536      8519      8518      8517      8521
      8519      8518      8517      8525      8519      8518      8517      8529
      8519      8518      8533      8534      8519      8518      8533      8535
      8519      8518      8533      8539      8520      8518      8517      8521
      8520      8518      8517      8525      8520      8518      8517      8529
      8520      8518      8533      8534      8520      8518      8533      8535
      8520      8518      8533      8539      8521      8517      8518      8533
      8521      8517      8525      8526      8521      8517      8525      8527
      8521      8517      8525      8528      8521      8517      8529      8530
      8521      8517      8529      8531      8521      8517      8529      8532
      8522      8521      8517      8525      8522      8521      8517      8529
      8523      8521      8517      8525      8523      8521      8517      8529
      8524      8521      8517      8525      8524      8521      8517      8529
      8525      8517      8518      8533      8525      8517      8529      8530
      8525      8517      8529      8531      8525      8517      8529      8532
      8526      8525      8517      8529      8527      8525      8517      8529
      8528      8525      8517      8529      8529      8517      8518      8533
      8533      8539      8536      8537      8533      8539      8536      8538
      8533      8539      8536      8540      8534      8533      8539      8536
      8535      8533      8539      8536      8536      8540      8541      8542
      8536      8540      8541      8543      8536      8540      8541      8544
      8537      8536      8540      8541      8538      8536      8540      8541
      8539      8536      8540      8541      8540      8541      8544      8545
      8540      8541      8544      8546      8540      8541      8544      8552
      8541      8544      8546      8547      8541      8544      8552      8553
      8541      8544      8552      8554      8541      8544      8552      8555
      8542      8541      8544      8545      8542      8541      8544      8546
      8542      8541      8544      8552      8543      8541      8544      8545
      8543      8541      8544      8546      8543      8541      8544      8552
      8544      8546      8547      8548      8544      8546      8547      8549
      8544      8552      8555      8556      8545      8544      8546      8547
      8545      8544      8552      8553      8545      8544      8552      8554
      8545      8544      8552      8555      8546      8544      8552      8553
      8546      8544      8552      8554      8546      8544      8552      8555
      8546      8547      8549      8550      8546      8547      8549      8551
      8546      8547      8549      8561      8547      8546      8544      8552
      8547      8549      8561      8562      8547      8549      8561      8563
      8547      8549      8561      8564      8548      8547      8549      8550
      8548      8547      8549      8551      8548      8547      8549      8561
      8549      8561      8564      8565      8549      8561      8564      8566
      8549      8561      8564      8567      8550      8549      8561      8562
      8550      8549      8561      8563      8550      8549      8561      8564
      8551      8549      8561      8562      8551      8549      8561      8563
      8551      8549      8561      8564      8552      8555      8556      8557
      8552      8555      8556      8558      8553      8552      8555      8556
      8554      8552      8555      8556      8555      8556      8558      8559
      8555      8556      8558      8560      8555      8556      8558      8608
      8556      8558      8608      8609      8556      8558      8608      8610
      8556      8558      8608      8611      8557      8556      8558      8559
      8557      8556      8558      8560      8557      8556      8558      8608
      8558      8608      8611      8612      8558      8608      8611      8613
      8558      8608      8611      8614      8559      8558      8608      8609
      8559      8558      8608      8610      8559      8558      8608      8611
      8560      8558      8608      8609      8560      8558      8608      8610
      8560      8558      8608      8611      8561      8564      8567      8568
      8561      8564      8567      8569      8562      8561      8564      8565
      8562      8561      8564      8566      8562      8561      8564      8567
      8563      8561      8564      8565      8563      8561      8564      8566
      8563      8561      8564      8567      8564      8567      8569      8570
      8564      8567      8569      8571      8565      8564      8567      8568
      8565      8564      8567      8569      8566      8564      8567      8568
      8566      8564      8567      8569      8567      8569      8571      8572
      8567      8569      8571      8573      8567      8569      8571      8574
      8568      8567      8569      8570      8568      8567      8569      8571
      8569      8571      8574      8575      8569      8571      8574      8576
      8570      8569      8571      8572      8570      8569      8571      8573
      8570      8569      8571      8574      8571      8574      8576      8577
      8571      8574      8576      8578      8572      8571      8574      8575
      8572      8571      8574      8576      8573      8571      8574      8575
      8573      8571      8574      8576      8574      8576      8578      8579
      8574      8576      8578      8580      8574      8576      8578      8581
      8575      8574      8576      8577      8575      8574      8576      8578
      8576      8578      8581      8582      8576      8578      8581      8583
      8577      8576      8578      8579      8577      8576      8578      8580
      8577      8576      8578      8581      8578      8581      8583      8584
      8578      8581      8583      8585      8579      8578      8581      8582
      8579      8578      8581      8583      8580      8578      8581      8582
      8580      8578      8581      8583      8581      8583      8585      8586
      8581      8583      8585      8587      8581      8583      8585      8588
      8582      8581      8583      8584      8582      8581      8583      8585
      8583      8585      8588      8589      8583      8585      8588      8590
      8584      8583      8585      8586      8584      8583      8585      8587
      8584      8583      8585      8588      8585      8588      8590      8591
      8585      8588      8590      8592      8586      8585      8588      8589
      8586      8585      8588      8590      8587      8585      8588      8589
      8587      8585      8588      8590      8588      8590      8592      8593
      8588      8590      8592      8594      8588      8590      8592      8595
      8589      8588      8590      8591      8589      8588      8590      8592
      8590      8592      8595      8596      8590      8592      8595      8597
      8590      8592      8595      8598      8591      8590      8592      8593
      8591      8590      8592      8594      8591      8590      8592      8595
      8592      8595      8598      8599      8592      8595      8598      8600
      8592      8595      8598      8601      8593      8592      8595      8596
      8593      8592      8595      8597      8593      8592      8595      8598
      8594      8592      8595      8596      8594      8592      8595      8597
      8594      8592      8595      8598      8595      8598      8601      8602
      8595      8598      8601      8603      8595      8598      8601      8604
      8596      8595      8598      8599      8596      8595      8598      8600
      8596      8595      8598      8601      8597      8595      8598      8599
      8597      8595      8598      8600      8597      8595      8598      8601
      8598      8601      8604      8605      8598      8601      8604      8606
      8598      8601      8604      8607      8599      8598      8601      8602
      8599      8598      8601      8603      8599      8598      8601      8604
      8600      8598      8601      8602      8600      8598      8601      8603
      8600      8598      8601      8604      8602      8601      8604      8605
      8602      8601      8604      8606      8602      8601      8604      8607
      8603      8601      8604      8605      8603      8601      8604      8606
      8603      8601      8604      8607      8608      8611      8614      8615
      8608      8611      8614      8616      8608      8611      8614      8617
      8609      8608      8611      8612      8609      8608      8611      8613
      8609      8608      8611      8614      8610      8608      8611      8612
      8610      8608      8611      8613      8610      8608      8611      8614
      8611      8614      8617      8618      8611      8614      8617      8619
      8611      8614      8617      8620      8612      8611      8614      8615
      8612      8611      8614      8616      8612      8611      8614      8617
      8613      8611      8614      8615      8613      8611      8614      8616
      8613      8611      8614      8617      8614      8617      8620      8621
      8614      8617      8620      8622      8614      8617      8620      8623
      8615      8614      8617      8618      8615      8614      8617      8619
      8615      8614      8617      8620      8616      8614      8617      8618
      8616      8614      8617      8619      8616      8614      8617      8620
      8617      8620      8623      8624      8617      8620      8623      8625
      8617      8620      8623      8626      8618      8617      8620      8621
      8618      8617      8620      8622      8618      8617      8620      8623
      8619      8617      8620      8621      8619      8617      8620      8622
      8619      8617      8620      8623      8620      8623      8626      8627
      8620      8623      8626      8628      8620      8623      8626      8629
      8621      8620      8623      8624      8621      8620      8623      8625
      8621      8620      8623      8626      8622      8620      8623      8624
      8622      8620      8623      8625      8622      8620      8623      8626
      8623      8626      8629      8630      8623      8626      8629      8631
      8623      8626      8629      8632      8624      8623      8626      8627
      8624      8623      8626      8628      8624      8623      8626      8629
      8625      8623      8626      8627      8625      8623      8626      8628
      8625      8623      8626      8629      8626      8629      8632      8633
      8626      8629      8632      8634      8626      8629      8632      8635
      8627      8626      8629      8630      8627      8626      8629      8631
      8627      8626      8629      8632      8628      8626      8629      8630
      8628      8626      8629      8631      8628      8626      8629      8632
      8629      8632      8635      8636      8629      8632      8635      8637
      8629      8632      8635      8638      8630      8629      8632      8633
      8630      8629      8632      8634      8630      8629      8632      8635
      8631      8629      8632      8633      8631      8629      8632      8634
      8631      8629      8632      8635      8632      8635      8638      8639
      8632      8635      8638      8640      8632      8635      8638      8641
      8633      8632      8635      8636      8633      8632      8635      8637
      8633      8632      8635      8638      8634      8632      8635      8636
      8634      8632      8635      8637      8634      8632      8635      8638
      8635      8638      8641      8642      8635      8638      8641      8643
      8635      8638      8641      8644      8636      8635      8638      8639
      8636      8635      8638      8640      8636      8635      8638      8641
      8637      8635      8638      8639      8637      8635      8638      8640
      8637      8635      8638      8641      8638      8641      8644      8645
      8638      8641      8644      8646      8638      8641      8644      8647
      8639      8638      8641      8642      8639      8638      8641      8643
      8639      8638      8641      8644      8640      8638      8641      8642
      8640      8638      8641      8643      8640      8638      8641      8644
      8641      8644      8647      8648      8641      8644      8647      8649
      8641      8644      8647      8650      8642      8641      8644      8645
      8642      8641      8644      8646      8642      8641      8644      8647
      8643      8641      8644      8645      8643      8641      8644      8646
      8643      8641      8644      8647      8644      8647      8650      8651
      8644      8647      8650      8652      8644      8647      8650      8653
      8645      8644      8647      8648      8645      8644      8647      8649
      8645      8644      8647      8650      8646      8644      8647      8648
      8646      8644      8647      8649      8646      8644      8647      8650
      8647      8650      8653      8654      8647      8650      8653      8655
      8647      8650      8653      8656      8648      8647      8650      8651
      8648      8647      8650      8652      8648      8647      8650      8653
      8649      8647      8650      8651      8649      8647      8650      8652
      8649      8647      8650      8653      8651      8650      8653      8654
      8651      8650      8653      8655      8651      8650      8653      8656
      8652      8650      8653      8654      8652      8650      8653      8655
      8652      8650      8653      8656     12415     12428     12431     12432
     12415     12428     12431     12433     12415     12428     12431     12438
     12416     12415     12420     12421     12416     12415     12420     12422
     12416     12415     12420     12423     12416     12415     12424     12425
     12416     12415     12424     12426     12416     12415     12424     12427
     12416     12415     12428     12429     12416     12415     12428     12430
     12416     12415     12428     12431     12417     12416     12415     12420
     12417     12416     12415     12424     12417     12416     12415     12428
     12418     12416     12415     12420     12418     12416     12415     12424
     12418     12416     12415     12428     12419     12416     12415     12420
     12419     12416     12415     12424     12419     12416     12415     12428
     12420     12415     12424     12425     12420     12415     12424     12426
     12420     12415     12424     12427     12420     12415     12428     12429
     12420     12415     12428     12430     12420     12415     12428     12431
     12421     12420     12415     12424     12421     12420     12415     12428
     12422     12420     12415     12424     12422     12420     12415     12428
     12423     12420     12415     12424     12423     12420     12415     12428
     12424     12415     12428     12429     12424     12415     12428     12430
     12424     12415     12428     12431     12425     12424     12415     12428
     12426     12424     12415     12428     12427     12424     12415     12428
     12428     12431     12438     12434     12429     12428     12431     12432
     12429     12428     12431     12433     12429     12428     12431     12438
     12430     12428     12431     12432     12430     12428     12431     12433
     12430     12428     12431     12438     12431     12438     12434     12435
     12431     12438     12434     12436     12431     12438     12434     12437
     12432     12431     12438     12434     12433     12431     12438     12434
     12434     12437     12439     12440     12434     12437     12439     12441
     12434     12437     12439     12444     12435     12434     12437     12439
     12436     12434     12437     12439     12437     12439     12444     12442
     12437     12439     12444     12445     12437     12439     12444     12446
     12438     12434     12437     12439     12439     12444     12442     12443
     12439     12444     12442     12494     12439     12444     12446     12447
     12439     12444     12446     12448     12439     12444     12446     12450
     12440     12439     12444     12442     12440     12439     12444     12445
     12440     12439     12444     12446     12441     12439     12444     12442
     12441     12439     12444     12445     12441     12439     12444     12446
     12442     12444     12446     12447     12442     12444     12446     12448
     12442     12444     12446     12450     12442     12494     12496     12497
     12442     12494     12496     12498     12442     12494     12496     12499
     12443     12442     12444     12445     12443     12442     12444     12446
     12443     12442     12494     12495     12443     12442     12494     12496
     12444     12442     12494     12495     12444     12442     12494     12496
     12444     12446     12448     12449     12444     12446     12450     12451
     12444     12446     12450     12452     12445     12444     12442     12494
     12445     12444     12446     12447     12445     12444     12446     12448
     12445     12444     12446     12450     12446     12444     12442     12494
     12446     12450     12452     12453     12446     12450     12452     12454
     12447     12446     12448     12449     12447     12446     12450     12451
     12447     12446     12450     12452     12448     12446     12450     12451
     12448     12446     12450     12452     12449     12448     12446     12450
     12450     12452     12454     12455     12450     12452     12454     12456
     12450     12452     12454     12457     12451     12450     12452     12453
     12451     12450     12452     12454     12452     12454     12457     12458
     12452     12454     12457     12459     12452     12454     12457     12460
     12453     12452     12454     12455     12453     12452     12454     12456
     12453     12452     12454     12457     12454     12457     12460     12461
     12454     12457     12460     12462     12454     12457     12460     12463
     12455     12454     12457     12458     12455     12454     12457     12459
     12455     12454     12457     12460     12456     12454     12457     12458
     12456     12454     12457     12459     12456     12454     12457     12460
     12457     12460     12463     12464     12457     12460     12463     12465
     12457     12460     12463     12466     12458     12457     12460     12461
     12458     12457     12460     12462     12458     12457     12460     12463
     12459     12457     12460     12461     12459     12457     12460     12462
     12459     12457     12460     12463     12460     12463     12466     12467
     12460     12463     12466     12468     12460     12463     12466     12469
     12461     12460     12463     12464     12461     12460     12463     12465
     12461     12460     12463     12466     12462     12460     12463     12464
     12462     12460     12463     12465     12462     12460     12463     12466
     12463     12466     12469     12470     12463     12466     12469     12471
     12463     12466     12469     12472     12464     12463     12466     12467
     12464     12463     12466     12468     12464     12463     12466     12469
     12465     12463     12466     12467     12465     12463     12466     12468
     12465     12463     12466     12469     12466     12469     12472     12473
     12466     12469     12472     12474     12466     12469     12472     12475
     12467     12466     12469     12470     12467     12466     12469     12471
     12467     12466     12469     12472     12468     12466     12469     12470
     12468     12466     12469     12471     12468     12466     12469     12472
     12469     12472     12475     12476     12469     12472     12475     12477
     12469     12472     12475     12478     12470     12469     12472     12473
     12470     12469     12472     12474     12470     12469     12472     12475
     12471     12469     12472     12473     12471     12469     12472     12474
     12471     12469     12472     12475     12472     12475     12478     12479
     12472     12475     12478     12480     12472     12475     12478     12481
     12473     12472     12475     12476     12473     12472     12475     12477
     12473     12472     12475     12478     12474     12472     12475     12476
     12474     12472     12475     12477     12474     12472     12475     12478
     12475     12478     12481     12482     12475     12478     12481     12483
     12475     12478     12481     12484     12476     12475     12478     12479
     12476     12475     12478     12480     12476     12475     12478     12481
     12477     12475     12478     12479     12477     12475     12478     12480
     12477     12475     12478     12481     12478     12481     12484     12485
     12478     12481     12484     12486     12478     12481     12484     12487
     12479     12478     12481     12482     12479     12478     12481     12483
     12479     12478     12481     12484     12480     12478     12481     12482
     12480     12478     12481     12483     12480     12478     12481     12484
     12481     12484     12487     12488     12481     12484     12487     12489
     12481     12484     12487     12490     12482     12481     12484     12485
     12482     12481     12484     12486     12482     12481     12484     12487
     12483     12481     12484     12485     12483     12481     12484     12486
     12483     12481     12484     12487     12484     12487     12490     12491
     12484     12487     12490     12492     12484     12487     12490     12493
     12485     12484     12487     12488     12485     12484     12487     12489
     12485     12484     12487     12490     12486     12484     12487     12488
     12486     12484     12487     12489     12486     12484     12487     12490
     12488     12487     12490     12491     12488     12487     12490     12492
     12488     12487     12490     12493     12489     12487     12490     12491
     12489     12487     12490     12492     12489     12487     12490     12493
     12494     12496     12499     12500     12494     12496     12499     12501
     12494     12496     12499     12502     12495     12494     12496     12497
     12495     12494     12496     12498     12495     12494     12496     12499
     12496     12499     12502     12503     12496     12499     12502     12504
     12496     12499     12502     12505     12497     12496     12499     12500
     12497     12496     12499     12501     12497     12496     12499     12502
     12498     12496     12499     12500     12498     12496     12499     12501
     12498     12496     12499     12502     12499     12502     12505     12506
     12499     12502     12505     12507     12499     12502     12505     12508
     12500     12499     12502     12503     12500     12499     12502     12504
     12500     12499     12502     12505     12501     12499     12502     12503
     12501     12499     12502     12504     12501     12499     12502     12505
     12502     12505     12508     12509     12502     12505     12508     12510
     12502     12505     12508     12511     12503     12502     12505     12506
     12503     12502     12505     12507     12503     12502     12505     12508
     12504     12502     12505     12506     12504     12502     12505     12507
     12504     12502     12505     12508     12505     12508     12511     12512
     12505     12508     12511     12513     12505     12508     12511     12514
     12506     12505     12508     12509     12506     12505     12508     12510
     12506     12505     12508     12511     12507     12505     12508     12509
     12507     12505     12508     12510     12507     12505     12508     12511
     12508     12511     12514     12515     12508     12511     12514     12516
     12508     12511     12514     12517     12509     12508     12511     12512
     12509     12508     12511     12513     12509     12508     12511     12514
     12510     12508     12511     12512     12510     12508     12511     12513
     12510     12508     12511     12514     12511     12514     12517     12518
     12511     12514     12517     12519     12512     12511     12514     12515
     12512     12511     12514     12516     12512     12511     12514     12517
     12513     12511     12514     12515     12513     12511     12514     12516
     12513     12511     12514     12517     12514     12517     12519     12520
     12514     12517     12519     12521     12515     12514     12517     12518
     12515     12514     12517     12519     12516     12514     12517     12518
     12516     12514     12517     12519     12517     12519     12521     12522
     12517     12519     12521     12523     12517     12519     12521     12524
     12518     12517     12519     12520     12518     12517     12519     12521
     12519     12521     12524     12525     12519     12521     12524     12526
     12519     12521     12524     12527     12520     12519     12521     12522
     12520     12519     12521     12523     12520     12519     12521     12524
     12521     12524     12527     12528     12521     12524     12527     12529
     12521     12524     12527     12530     12522     12521     12524     12525
     12522     12521     12524     12526     12522     12521     12524     12527
     12523     12521     12524     12525     12523     12521     12524     12526
     12523     12521     12524     12527     12524     12527     12530     12531
     12524     12527     12530     12532     12524     12527     12530     12533
     12525     12524     12527     12528     12525     12524     12527     12529
     12525     12524     12527     12530     12526     12524     12527     12528
     12526     12524     12527     12529     12526     12524     12527     12530
     12527     12530     12533     12534     12527     12530     12533     12535
     12527     12530     12533     12536     12528     12527     12530     12531
     12528     12527     12530     12532     12528     12527     12530     12533
     12529     12527     12530     12531     12529     12527     12530     12532
     12529     12527     12530     12533     12530     12533     12536     12537
     12530     12533     12536     12538     12530     12533     12536     12539
     12531     12530     12533     12534     12531     12530     12533     12535
     12531     12530     12533     12536     12532     12530     12533     12534
     12532     12530     12533     12535     12532     12530     12533     12536
     12533     12536     12539     12540     12533     12536     12539     12541
     12533     12536     12539     12542     12534     12533     12536     12537
     12534     12533     12536     12538     12534     12533     12536     12539
     12535     12533     12536     12537     12535     12533     12536     12538
     12535     12533     12536     12539     12536     12539     12542     12543
     12536     12539     12542     12544     12536     12539     12542     12545
     12537     12536     12539     12540     12537     12536     12539     12541
     12537     12536     12539     12542     12538     12536     12539     12540
     12538     12536     12539     12541     12538     12536     12539     12542
     12540     12539     12542     12543     12540     12539     12542     12544
     12540     12539     12542     12545     12541     12539     12542     12543
     12541     12539     12542     12544     12541     12539     12542     12545
     12546     12559     12562     12563     12546     12559     12562     12564
     12546     12559     12562     12569     12547     12546     12551     12552
     12547     12546     12551     12553     12547     12546     12551     12554
     12547     12546     12555     12556     12547     12546     12555     12557
     12547     12546     12555     12558     12547     12546     12559     12560
     12547     12546     12559     12561     12547     12546     12559     12562
     12548     12547     12546     12551     12548     12547     12546     12555
     12548     12547     12546     12559     12549     12547     12546     12551
     12549     12547     12546     12555     12549     12547     12546     12559
     12550     12547     12546     12551     12550     12547     12546     12555
     12550     12547     12546     12559     12551     12546     12555     12556
     12551     12546     12555     12557     12551     12546     12555     12558
     12551     12546     12559     12560     12551     12546     12559     12561
     12551     12546     12559     12562     12552     12551     12546     12555
     12552     12551     12546     12559     12553     12551     12546     12555
     12553     12551     12546     12559     12554     12551     12546     12555
     12554     12551     12546     12559     12555     12546     12559     12560
     12555     12546     12559     12561     12555     12546     12559     12562
     12556     12555     12546     12559     12557     12555     12546     12559
     12558     12555     12546     12559     12559     12562     12569     12565
     12560     12559     12562     12563     12560     12559     12562     12564
     12560     12559     12562     12569     12561     12559     12562     12563
     12561     12559     12562     12564     12561     12559     12562     12569
     12562     12569     12565     12566     12562     12569     12565     12567
     12562     12569     12565     12568     12563     12562     12569     12565
     12564     12562     12569     12565     12565     12568     12570     12571
     12565     12568     12570     12572     12565     12568     12570     12575
     12566     12565     12568     12570     12567     12565     12568     12570
     12568     12570     12575     12573     12568     12570     12575     12576
     12568     12570     12575     12577     12569     12565     12568     12570
     12570     12575     12573     12574     12570     12575     12573     12625
     12570     12575     12577     12578     12570     12575     12577     12579
     12570     12575     12577     12581     12571     12570     12575     12573
     12571     12570     12575     12576     12571     12570     12575     12577
     12572     12570     12575     12573     12572     12570     12575     12576
     12572     12570     12575     12577     12573     12575     12577     12578
     12573     12575     12577     12579     12573     12575     12577     12581
     12573     12625     12627     12628     12573     12625     12627     12629
     12573     12625     12627     12630     12574     12573     12575     12576
     12574     12573     12575     12577     12574     12573     12625     12626
     12574     12573     12625     12627     12575     12573     12625     12626
     12575     12573     12625     12627     12575     12577     12579     12580
     12575     12577     12581     12582     12575     12577     12581     12583
     12576     12575     12573     12625     12576     12575     12577     12578
     12576     12575     12577     12579     12576     12575     12577     12581
     12577     12575     12573     12625     12577     12581     12583     12584
     12577     12581     12583     12585     12578     12577     12579     12580
     12578     12577     12581     12582     12578     12577     12581     12583
     12579     12577     12581     12582     12579     12577     12581     12583
     12580     12579     12577     12581     12581     12583     12585     12586
     12581     12583     12585     12587     12581     12583     12585     12588
     12582     12581     12583     12584     12582     12581     12583     12585
     12583     12585     12588     12589     12583     12585     12588     12590
     12583     12585     12588     12591     12584     12583     12585     12586
     12584     12583     12585     12587     12584     12583     12585     12588
     12585     12588     12591     12592     12585     12588     12591     12593
     12585     12588     12591     12594     12586     12585     12588     12589
     12586     12585     12588     12590     12586     12585     12588     12591
     12587     12585     12588     12589     12587     12585     12588     12590
     12587     12585     12588     12591     12588     12591     12594     12595
     12588     12591     12594     12596     12588     12591     12594     12597
     12589     12588     12591     12592     12589     12588     12591     12593
     12589     12588     12591     12594     12590     12588     12591     12592
     12590     12588     12591     12593     12590     12588     12591     12594
     12591     12594     12597     12598     12591     12594     12597     12599
     12591     12594     12597     12600     12592     12591     12594     12595
     12592     12591     12594     12596     12592     12591     12594     12597
     12593     12591     12594     12595     12593     12591     12594     12596
     12593     12591     12594     12597     12594     12597     12600     12601
     12594     12597     12600     12602     12594     12597     12600     12603
     12595     12594     12597     12598     12595     12594     12597     12599
     12595     12594     12597     12600     12596     12594     12597     12598
     12596     12594     12597     12599     12596     12594     12597     12600
     12597     12600     12603     12604     12597     12600     12603     12605
     12597     12600     12603     12606     12598     12597     12600     12601
     12598     12597     12600     12602     12598     12597     12600     12603
     12599     12597     12600     12601     12599     12597     12600     12602
     12599     12597     12600     12603     12600     12603     12606     12607
     12600     12603     12606     12608     12600     12603     12606     12609
     12601     12600     12603     12604     12601     12600     12603     12605
     12601     12600     12603     12606     12602     12600     12603     12604
     12602     12600     12603     12605     12602     12600     12603     12606
     12603     12606     12609     12610     12603     12606     12609     12611
     12603     12606     12609     12612     12604     12603     12606     12607
     12604     12603     12606     12608     12604     12603     12606     12609
     12605     12603     12606     12607     12605     12603     12606     12608
     12605     12603     12606     12609     12606     12609     12612     12613
     12606     12609     12612     12614     12606     12609     12612     12615
     12607     12606     12609     12610     12607     12606     12609     12611
     12607     12606     12609     12612     12608     12606     12609     12610
     12608     12606     12609     12611     12608     12606     12609     12612
     12609     12612     12615     12616     12609     12612     12615     12617
     12609     12612     12615     12618     12610     12609     12612     12613
     12610     12609     12612     12614     12610     12609     12612     12615
     12611     12609     12612     12613     12611     12609     12612     12614
     12611     12609     12612     12615     12612     12615     12618     12619
     12612     12615     12618     12620     12612     12615     12618     12621
     12613     12612     12615     12616     12613     12612     12615     12617
     12613     12612     12615     12618     12614     12612     12615     12616
     12614     12612     12615     12617     12614     12612     12615     12618
     12615     12618     12621     12622     12615     12618     12621     12623
     12615     12618     12621     12624     12616     12615     12618     12619
     12616     12615     12618     12620     12616     12615     12618     12621
     12617     12615     12618     12619     12617     12615     12618     12620
     12617     12615     12618     12621     12619     12618     12621     12622
     12619     12618     12621     12623     12619     12618     12621     12624
     12620     12618     12621     12622     12620     12618     12621     12623
     12620     12618     12621     12624     12625     12627     12630     12631
     12625     12627     12630     12632     12625     12627     12630     12633
     12626     12625     12627     12628     12626     12625     12627     12629
     12626     12625     12627     12630     12627     12630     12633     12634
     12627     12630     12633     12635     12627     12630     12633     12636
     12628     12627     12630     12631     12628     12627     12630     12632
     12628     12627     12630     12633     12629     12627     12630     12631
     12629     12627     12630     12632     12629     12627     12630     12633
     12630     12633     12636     12637     12630     12633     12636     12638
     12630     12633     12636     12639     12631     12630     12633     12634
     12631     12630     12633     12635     12631     12630     12633     12636
     12632     12630     12633     12634     12632     12630     12633     12635
     12632     12630     12633     12636     12633     12636     12639     12640
     12633     12636     12639     12641     12633     12636     12639     12642
     12634     12633     12636     12637     12634     12633     12636     12638
     12634     12633     12636     12639     12635     12633     12636     12637
     12635     12633     12636     12638     12635     12633     12636     12639
     12636     12639     12642     12643     12636     12639     12642     12644
     12636     12639     12642     12645     12637     12636     12639     12640
     12637     12636     12639     12641     12637     12636     12639     12642
     12638     12636     12639     12640     12638     12636     12639     12641
     12638     12636     12639     12642     12639     12642     12645     12646
     12639     12642     12645     12647     12639     12642     12645     12648
     12640     12639     12642     12643     12640     12639     12642     12644
     12640     12639     12642     12645     12641     12639     12642     12643
     12641     12639     12642     12644     12641     12639     12642     12645
     12642     12645     12648     12649     12642     12645     12648     12650
     12643     12642     12645     12646     12643     12642     12645     12647
     12643     12642     12645     12648     12644     12642     12645     12646
     12644     12642     12645     12647     12644     12642     12645     12648
     12645     12648     12650     12651     12645     12648     12650     12652
     12646     12645     12648     12649     12646     12645     12648     12650
     12647     12645     12648     12649     12647     12645     12648     12650
     12648     12650     12652     12653     12648     12650     12652     12654
     12648     12650     12652     12655     12649     12648     12650     12651
     12649     12648     12650     12652     12650     12652     12655     12656
     12650     12652     12655     12657     12650     12652     12655     12658
     12651     12650     12652     12653     12651     12650     12652     12654
     12651     12650     12652     12655     12652     12655     12658     12659
     12652     12655     12658     12660     12652     12655     12658     12661
     12653     12652     12655     12656     12653     12652     12655     12657
     12653     12652     12655     12658     12654     12652     12655     12656
     12654     12652     12655     12657     12654     12652     12655     12658
     12655     12658     12661     12662     12655     12658     12661     12663
     12655     12658     12661     12664     12656     12655     12658     12659
     12656     12655     12658     12660     12656     12655     12658     12661
     12657     12655     12658     12659     12657     12655     12658     12660
     12657     12655     12658     12661     12658     12661     12664     12665
     12658     12661     12664     12666     12658     12661     12664     12667
     12659     12658     12661     12662     12659     12658     12661     12663
     12659     12658     12661     12664     12660     12658     12661     12662
     12660     12658     12661     12663     12660     12658     12661     12664
     12661     12664     12667     12668     12661     12664     12667     12669
     12661     12664     12667     12670     12662     12661     12664     12665
     12662     12661     12664     12666     12662     12661     12664     12667
     12663     12661     12664     12665     12663     12661     12664     12666
     12663     12661     12664     12667     12664     12667     12670     12671
     12664     12667     12670     12672     12664     12667     12670     12673
     12665     12664     12667     12668     12665     12664     12667     12669
     12665     12664     12667     12670     12666     12664     12667     12668
     12666     12664     12667     12669     12666     12664     12667     12670
     12667     12670     12673     12674     12667     12670     12673     12675
     12667     12670     12673     12676     12668     12667     12670     12671
     12668     12667     12670     12672     12668     12667     12670     12673
     12669     12667     12670     12671     12669     12667     12670     12672
     12669     12667     12670     12673     12671     12670     12673     12674
     12671     12670     12673     12675     12671     12670     12673     12676
     12672     12670     12673     12674     12672     12670     12673     12675
     12672     12670     12673     12676       932       936       938       939
       932       936       938       940       932       936       941       942
       932       936       941       943       932       936       941       947
       933       932       936       937       933       932       936       938
       933       932       936       941       934       932       936       937
       934       932       936       938       934       932       936       941
       935       932       936       937       935       932       936       938
       935       932       936       941       936       941       947       944
       937       936       938       939       937       936       938       940
       937       936       941       942       937       936       941       943
       937       936       941       947       938       936       941       942
       938       936       941       943       938       936       941       947
       939       938       936       941       940       938       936       941
       941       947       944       945       941       947       944       946
       941       947       944       948       942       941       947       944
       943       941       947       944       944       948       949       950
       944       948       949       951       944       948       949       952
       945       944       948       949       946       944       948       949
       947       944       948       949       948       949       952       953
       948       949       952       954       948       949       952       960
       949       952       954       955       949       952       960       961
       949       952       960       962       949       952       960       963
       950       949       952       953       950       949       952       954
       950       949       952       960       951       949       952       953
       951       949       952       954       951       949       952       960
       952       954       955       956       952       954       955       957
       952       960       963       964       953       952       954       955
       953       952       960       961       953       952       960       962
       953       952       960       963       954       952       960       961
       954       952       960       962       954       952       960       963
       954       955       957       958       954       955       957       959
       954       955       957       969       955       954       952       960
       955       957       969       970       955       957       969       971
       955       957       969       972       956       955       957       958
       956       955       957       959       956       955       957       969
       957       969       972       973       957       969       972       974
       957       969       972       975       958       957       969       970
       958       957       969       971       958       957       969       972
       959       957       969       970       959       957       969       971
       959       957       969       972       960       963       964       965
       960       963       964       966       961       960       963       964
       962       960       963       964       963       964       966       967
       963       964       966       968       963       964       966      1016
       964       966      1016      1017       964       966      1016      1018
       964       966      1016      1019       965       964       966       967
       965       964       966       968       965       964       966      1016
       966      1016      1019      1020       966      1016      1019      1021
       966      1016      1019      1022       967       966      1016      1017
       967       966      1016      1018       967       966      1016      1019
       968       966      1016      1017       968       966      1016      1018
       968       966      1016      1019       969       972       975       976
       969       972       975       977       970       969       972       973
       970       969       972       974       970       969       972       975
       971       969       972       973       971       969       972       974
       971       969       972       975       972       975       977       978
       972       975       977       979       973       972       975       976
       973       972       975       977       974       972       975       976
       974       972       975       977       975       977       979       980
       975       977       979       981       975       977       979       982
       976       975       977       978       976       975       977       979
       977       979       982       983       977       979       982       984
       978       977       979       980       978       977       979       981
       978       977       979       982       979       982       984       985
       979       982       984       986       980       979       982       983
       980       979       982       984       981       979       982       983
       981       979       982       984       982       984       986       987
       982       984       986       988       982       984       986       989
       983       982       984       985       983       982       984       986
       984       986       989       990       984       986       989       991
       985       984       986       987       985       984       986       988
       985       984       986       989       986       989       991       992
       986       989       991       993       987       986       989       990
       987       986       989       991       988       986       989       990
       988       986       989       991       989       991       993       994
       989       991       993       995       989       991       993       996
       990       989       991       992       990       989       991       993
       991       993       996       997       991       993       996       998
       992       991       993       994       992       991       993       995
       992       991       993       996       993       996       998       999
       993       996       998      1000       994       993       996       997
       994       993       996       998       995       993       996       997
       995       993       996       998       996       998      1000      1001
       996       998      1000      1002       996       998      1000      1003
       997       996       998       999       997       996       998      1000
       998      1000      1003      1004       998      1000      1003      1005
       998      1000      1003      1006       999       998      1000      1001
       999       998      1000      1002       999       998      1000      1003
      1000      1003      1006      1007      1000      1003      1006      1008
      1000      1003      1006      1009      1001      1000      1003      1004
      1001      1000      1003      1005      1001      1000      1003      1006
      1002      1000      1003      1004      1002      1000      1003      1005
      1002      1000      1003      1006      1003      1006      1009      1010
      1003      1006      1009      1011      1003      1006      1009      1012
      1004      1003      1006      1007      1004      1003      1006      1008
      1004      1003      1006      1009      1005      1003      1006      1007
      1005      1003      1006      1008      1005      1003      1006      1009
      1006      1009      1012      1013      1006      1009      1012      1014
      1006      1009      1012      1015      1007      1006      1009      1010
      1007      1006      1009      1011      1007      1006      1009      1012
      1008      1006      1009      1010      1008      1006      1009      1011
      1008      1006      1009      1012      1010      1009      1012      1013
      1010      1009      1012      1014      1010      1009      1012      1015
      1011      1009      1012      1013      1011      1009      1012      1014
      1011      1009      1012      1015      1016      1019      1022      1023
      1016      1019      1022      1024      1016      1019      1022      1025
      1017      1016      1019      1020      1017      1016      1019      1021
      1017      1016      1019      1022      1018      1016      1019      1020
      1018      1016      1019      1021      1018      1016      1019      1022
      1019      1022      1025      1026      1019      1022      1025      1027
      1019      1022      1025      1028      1020      1019      1022      1023
      1020      1019      1022      1024      1020      1019      1022      1025
      1021      1019      1022      1023      1021      1019      1022      1024
      1021      1019      1022      1025      1022      1025      1028      1029
      1022      1025      1028      1030      1022      1025      1028      1031
      1023      1022      1025      1026      1023      1022      1025      1027
      1023      1022      1025      1028      1024      1022      1025      1026
      1024      1022      1025      1027      1024      1022      1025      1028
      1025      1028      1031      1032      1025      1028      1031      1033
      1025      1028      1031      1034      1026      1025      1028      1029
      1026      1025      1028      1030      1026      1025      1028      1031
      1027      1025      1028      1029      1027      1025      1028      1030
      1027      1025      1028      1031      1028      1031      1034      1035
      1028      1031      1034      1036      1028      1031      1034      1037
      1029      1028      1031      1032      1029      1028      1031      1033
      1029      1028      1031      1034      1030      1028      1031      1032
      1030      1028      1031      1033      1030      1028      1031      1034
      1031      1034      1037      1038      1031      1034      1037      1039
      1031      1034      1037      1040      1032      1031      1034      1035
      1032      1031      1034      1036      1032      1031      1034      1037
      1033      1031      1034      1035      1033      1031      1034      1036
      1033      1031      1034      1037      1034      1037      1040      1041
      1034      1037      1040      1042      1034      1037      1040      1043
      1035      1034      1037      1038      1035      1034      1037      1039
      1035      1034      1037      1040      1036      1034      1037      1038
      1036      1034      1037      1039      1036      1034      1037      1040
      1037      1040      1043      1044      1037      1040      1043      1045
      1037      1040      1043      1046      1038      1037      1040      1041
      1038      1037      1040      1042      1038      1037      1040      1043
      1039      1037      1040      1041      1039      1037      1040      1042
      1039      1037      1040      1043      1040      1043      1046      1047
      1040      1043      1046      1048      1040      1043      1046      1049
      1041      1040      1043      1044      1041      1040      1043      1045
      1041      1040      1043      1046      1042      1040      1043      1044
      1042      1040      1043      1045      1042      1040      1043      1046
      1043      1046      1049      1050      1043      1046      1049      1051
      1043      1046      1049      1052      1044      1043      1046      1047
      1044      1043      1046      1048      1044      1043      1046      1049
      1045      1043      1046      1047      1045      1043      1046      1048
      1045      1043      1046      1049      1046      1049      1052      1053
      1046      1049      1052      1054      1046      1049      1052      1055
      1047      1046      1049      1050      1047      1046      1049      1051
      1047      1046      1049      1052      1048      1046      1049      1050
      1048      1046      1049      1051      1048      1046      1049      1052
      1049      1052      1055      1056      1049      1052      1055      1057
      1049      1052      1055      1058      1050      1049      1052      1053
      1050      1049      1052      1054      1050      1049      1052      1055
      1051      1049      1052      1053      1051      1049      1052      1054
      1051      1049      1052      1055      1052      1055      1058      1059
      1052      1055      1058      1060      1052      1055      1058      1061
      1053      1052      1055      1056      1053      1052      1055      1057
      1053      1052      1055      1058      1054      1052      1055      1056
      1054      1052      1055      1057      1054      1052      1055      1058
      1055      1058      1061      1062      1055      1058      1061      1063
      1055      1058      1061      1064      1056      1055      1058      1059
      1056      1055      1058      1060      1056      1055      1058      1061
      1057      1055      1058      1059      1057      1055      1058      1060
      1057      1055      1058      1061      1059      1058      1061      1062
      1059      1058      1061      1063      1059      1058      1061      1064
      1060      1058      1061      1062      1060      1058      1061      1063
      1060      1058      1061      1064      4363      4367      4370      4371
      4363      4367      4370      4401      4363      4409      4406      4401
      4363      4409      4406      4407      4363      4409      4406      4408
      4364      4363      4365      4366      4364      4363      4367      4368
      4364      4363      4367      4369      4364      4363      4367      4370
      4364      4363      4409      4406      4364      4363      4409      4410
      4364      4363      4409      4411      4365      4363      4367      4368
      4365      4363      4367      4369      4365      4363      4367      4370
      4365      4363      4409      4406      4365      4363      4409      4410
      4365      4363      4409      4411      4366      4365      4363      4367
      4366      4365      4363      4409      4367      4363      4409      4406
      4367      4363      4409      4410      4367      4363      4409      4411
      4367      4370      4371      4372      4367      4370      4371      4373
      4367      4370      4401      4399      4367      4370      4401      4402
      4367      4370      4401      4406      4368      4367      4363      4409
      4368      4367      4370      4371      4368      4367      4370      4401
      4369      4367      4363      4409      4369      4367      4370      4371
      4369      4367      4370      4401      4370      4367      4363      4409
      4370      4371      4373      4374      4370      4371      4373      4375
      4370      4371      4373      4376      4370      4401      4399      4376
      4370      4401      4399      4396      4370      4401      4399      4400
      4370      4401      4402      4403      4370      4401      4402      4404
      4370      4401      4402      4405      4370      4401      4406      4407
      4370      4401      4406      4408      4370      4401      4406      4409
      4371      4370      4401      4399      4371      4370      4401      4402
      4371      4370      4401      4406      4371      4373      4376      4377
      4371      4373      4376      4378      4371      4373      4376      4399
      4372      4371      4370      4401      4372      4371      4373      4374
      4372      4371      4373      4375      4372      4371      4373      4376
      4373      4371      4370      4401      4373      4376      4378      4379
      4373      4376      4378      4380      4373      4376      4378      4388
      4373      4376      4399      4396      4373      4376      4399      4400
      4373      4376      4399      4401      4374      4373      4376      4377
      4374      4373      4376      4378      4374      4373      4376      4399
      4375      4373      4376      4377      4375      4373      4376      4378
      4375      4373      4376      4399      4376      4378      4380      4381
      4376      4378      4380      4382      4376      4378      4380      4383
      4376      4378      4388      4386      4376      4378      4388      4389
      4376      4378      4388      4393      4376      4399      4396      4393
      4376      4399      4396      4397      4376      4399      4396      4398
      4376      4399      4401      4402      4376      4399      4401      4406
      4377      4376      4378      4379      4377      4376      4378      4380
      4377      4376      4378      4388      4377      4376      4399      4396
      4377      4376      4399      4400      4377      4376      4399      4401
      4378      4376      4399      4396      4378      4376      4399      4400
      4378      4376      4399      4401      4378      4380      4383      4384
      4378      4380      4383      4385      4378      4380      4383      4386
      4378      4388      4386      4383      4378      4388      4386      4387
      4378      4388      4386      4412      4378      4388      4389      4390
      4378      4388      4389      4391      4378      4388      4389      4392
      4378      4388      4393      4394      4378      4388      4393      4395
      4378      4388      4393      4396      4379      4378      4376      4399
      4379      4378      4380      4381      4379      4378      4380      4382
      4379      4378      4380      4383      4379      4378      4388      4386
      4379      4378      4388      4389      4379      4378      4388      4393
      4380      4378      4376      4399      4380      4378      4388      4386
      4380      4378      4388      4389      4380      4378      4388      4393
      4380      4383      4386      4387      4380      4383      4386      4388
      4380      4383      4386      4412      4381      4380      4378      4388
      4381      4380      4383      4384      4381      4380      4383      4385
      4381      4380      4383      4386      4382      4380      4378      4388
      4382      4380      4383      4384      4382      4380      4383      4385
      4382      4380      4383      4386      4383      4380      4378      4388
      4383      4386      4388      4389      4383      4386      4388      4393
      4383      4386      4412      4413      4383      4386      4412      4414
      4383      4386      4412      4418      4384      4383      4386      4387
      4384      4383      4386      4388      4384      4383      4386      4412
      4385      4383      4386      4387      4385      4383      4386      4388
      4385      4383      4386      4412      4386      4388      4389      4390
      4386      4388      4389      4391      4386      4388      4389      4392
      4386      4388      4393      4394      4386      4388      4393      4395
      4386      4388      4393      4396      4386      4412      4414      4415
      4386      4412      4414      4416      4386      4412      4414      4417
      4386      4412      4418      4419      4386      4412      4418      4420
      4386      4412      4418      4421      4387      4386      4388      4389
      4387      4386      4388      4393      4387      4386      4412      4413
      4387      4386      4412      4414      4387      4386      4412      4418
      4388      4378      4376      4399      4388      4386      4412      4413
      4388      4386      4412      4414      4388      4386      4412      4418
      4388      4393      4396      4397      4388      4393      4396      4398
      4388      4393      4396      4399      4389      4388      4386      4412
      4389      4388      4393      4394      4389      4388      4393      4395
      4389      4388      4393      4396      4390      4389      4388      4393
      4391      4389      4388      4393      4392      4389      4388      4393
      4393      4388      4386      4412      4393      4396      4399      4400
      4393      4396      4399      4401      4394      4393      4396      4397
      4394      4393      4396      4398      4394      4393      4396      4399
      4395      4393      4396      4397      4395      4393      4396      4398
      4395      4393      4396      4399      4396      4399      4401      4402
      4396      4399      4401      4406      4397      4396      4399      4400
      4397      4396      4399      4401      4398      4396      4399      4400
      4398      4396      4399      4401      4399      4401      4402      4403
      4399      4401      4402      4404      4399      4401      4402      4405
      4399      4401      4406      4407      4399      4401      4406      4408
      4399      4401      4406      4409      4400      4399      4401      4402
      4400      4399      4401      4406      4401      4406      4409      4410
      4401      4406      4409      4411      4402      4401      4406      4407
      4402      4401      4406      4408      4402      4401      4406      4409
      4403      4402      4401      4406      4404      4402      4401      4406
      4405      4402      4401      4406      4407      4406      4409      4410
      4407      4406      4409      4411      4408      4406      4409      4410
      4408      4406      4409      4411      4412      4418      4421      4422
      4412      4418      4421      4423      4412      4418      4421      4424
      4413      4412      4414      4415      4413      4412      4414      4416
      4413      4412      4414      4417      4413      4412      4418      4419
      4413      4412      4418      4420      4413      4412      4418      4421
      4414      4412      4418      4419      4414      4412      4418      4420
      4414      4412      4418      4421      4415      4414      4412      4418
      4416      4414      4412      4418      4417      4414      4412      4418
      4418      4421      4424      4425      4418      4421      4424      4426
      4418      4421      4424      4427      4419      4418      4421      4422
      4419      4418      4421      4423      4419      4418      4421      4424
      4420      4418      4421      4422      4420      4418      4421      4423
      4420      4418      4421      4424      4421      4424      4427      4428
      4421      4424      4427      4429      4421      4424      4427      4433
      4422      4421      4424      4425      4422      4421      4424      4426
      4422      4421      4424      4427      4423      4421      4424      4425
      4423      4421      4424      4426      4423      4421      4424      4427
      4424      4427      4429      4430      4424      4427      4429      4431
      4424      4427      4429      4432      4424      4427      4433      4434
      4424      4427      4433      4435      4424      4427      4433      4436
      4425      4424      4427      4428      4425      4424      4427      4429
      4425      4424      4427      4433      4426      4424      4427      4428
      4426      4424      4427      4429      4426      4424      4427      4433
      4428      4427      4429      4430      4428      4427      4429      4431
      4428      4427      4429      4432      4428      4427      4433      4434
      4428      4427      4433      4435      4428      4427      4433      4436
      4429      4427      4433      4434      4429      4427      4433      4435
      4429      4427      4433      4436      4430      4429      4427      4433
      4431      4429      4427      4433      4432      4429      4427      4433
     20041     20054     20057     20058     20041     20054     20057     20059
     20041     20054     20057     20063     20042     20041     20046     20047
     20042     20041     20046     20048     20042     20041     20046     20049
     20042     20041     20050     20051     20042     20041     20050     20052
     20042     20041     20050     20053     20042     20041     20054     20055
     20042     20041     20054     20056     20042     20041     20054     20057
     20043     20042     20041     20046     20043     20042     20041     20050
     20043     20042     20041     20054     20044     20042     20041     20046
     20044     20042     20041     20050     20044     20042     20041     20054
     20045     20042     20041     20046     20045     20042     20041     20050
     20045     20042     20041     20054     20046     20041     20050     20051
     20046     20041     20050     20052     20046     20041     20050     20053
     20046     20041     20054     20055     20046     20041     20054     20056
     20046     20041     20054     20057     20047     20046     20041     20050
     20047     20046     20041     20054     20048     20046     20041     20050
     20048     20046     20041     20054     20049     20046     20041     20050
     20049     20046     20041     20054     20050     20041     20054     20055
     20050     20041     20054     20056     20050     20041     20054     20057
     20051     20050     20041     20054     20052     20050     20041     20054
     20053     20050     20041     20054     20054     20057     20063     20060
     20055     20054     20057     20058     20055     20054     20057     20059
     20055     20054     20057     20063     20056     20054     20057     20058
     20056     20054     20057     20059     20056     20054     20057     20063
     20057     20063     20060     20061     20057     20063     20060     20062
     20057     20063     20060     20064     20058     20057     20063     20060
     20059     20057     20063     20060     20060     20064     20065     20066
     20060     20064     20065     20067     20060     20064     20065     20068
     20061     20060     20064     20065     20062     20060     20064     20065
     20063     20060     20064     20065     20064     20065     20068     20069
     20064     20065     20068     20070     20064     20065     20068     20076
     20065     20068     20070     20071     20065     20068     20076     20077
     20065     20068     20076     20078     20065     20068     20076     20079
     20066     20065     20068     20069     20066     20065     20068     20070
     20066     20065     20068     20076     20067     20065     20068     20069
     20067     20065     20068     20070     20067     20065     20068     20076
     20068     20070     20071     20072     20068     20070     20071     20073
     20068     20076     20079     20080     20069     20068     20070     20071
     20069     20068     20076     20077     20069     20068     20076     20078
     20069     20068     20076     20079     20070     20068     20076     20077
     20070     20068     20076     20078     20070     20068     20076     20079
     20070     20071     20073     20074     20070     20071     20073     20075
     20070     20071     20073     20085     20071     20070     20068     20076
     20071     20073     20085     20086     20071     20073     20085     20087
     20071     20073     20085     20088     20072     20071     20073     20074
     20072     20071     20073     20075     20072     20071     20073     20085
     20073     20085     20088     20089     20073     20085     20088     20090
     20073     20085     20088     20091     20074     20073     20085     20086
     20074     20073     20085     20087     20074     20073     20085     20088
     20075     20073     20085     20086     20075     20073     20085     20087
     20075     20073     20085     20088     20076     20079     20080     20081
     20076     20079     20080     20082     20077     20076     20079     20080
     20078     20076     20079     20080     20079     20080     20082     20083
     20079     20080     20082     20084     20079     20080     20082     20130
     20080     20082     20130     20131     20080     20082     20130     20132
     20080     20082     20130     20133     20081     20080     20082     20083
     20081     20080     20082     20084     20081     20080     20082     20130
     20082     20130     20133     20134     20082     20130     20133     20135
     20082     20130     20133     20136     20083     20082     20130     20131
     20083     20082     20130     20132     20083     20082     20130     20133
     20084     20082     20130     20131     20084     20082     20130     20132
     20084     20082     20130     20133     20085     20088     20091     20092
     20085     20088     20091     20093     20085     20088     20091     20094
     20086     20085     20088     20089     20086     20085     20088     20090
     20086     20085     20088     20091     20087     20085     20088     20089
     20087     20085     20088     20090     20087     20085     20088     20091
     20088     20091     20094     20095     20088     20091     20094     20096
     20088     20091     20094     20097     20089     20088     20091     20092
     20089     20088     20091     20093     20089     20088     20091     20094
     20090     20088     20091     20092     20090     20088     20091     20093
     20090     20088     20091     20094     20091     20094     20097     20098
     20091     20094     20097     20099     20091     20094     20097     20100
     20092     20091     20094     20095     20092     20091     20094     20096
     20092     20091     20094     20097     20093     20091     20094     20095
     20093     20091     20094     20096     20093     20091     20094     20097
     20094     20097     20100     20101     20094     20097     20100     20102
     20094     20097     20100     20103     20095     20094     20097     20098
     20095     20094     20097     20099     20095     20094     20097     20100
     20096     20094     20097     20098     20096     20094     20097     20099
     20096     20094     20097     20100     20097     20100     20103     20104
     20097     20100     20103     20105     20098     20097     20100     20101
     20098     20097     20100     20102     20098     20097     20100     20103
     20099     20097     20100     20101     20099     20097     20100     20102
     20099     20097     20100     20103     20100     20103     20105     20106
     20100     20103     20105     20107     20101     20100     20103     20104
     20101     20100     20103     20105     20102     20100     20103     20104
     20102     20100     20103     20105     20103     20105     20107     20108
     20103     20105     20107     20109     20103     20105     20107     20110
     20104     20103     20105     20106     20104     20103     20105     20107
     20105     20107     20110     20111     20105     20107     20110     20112
     20106     20105     20107     20108     20106     20105     20107     20109
     20106     20105     20107     20110     20107     20110     20112     20113
     20107     20110     20112     20114     20108     20107     20110     20111
     20108     20107     20110     20112     20109     20107     20110     20111
     20109     20107     20110     20112     20110     20112     20114     20115
     20110     20112     20114     20116     20110     20112     20114     20117
     20111     20110     20112     20113     20111     20110     20112     20114
     20112     20114     20117     20118     20112     20114     20117     20119
     20112     20114     20117     20120     20113     20112     20114     20115
     20113     20112     20114     20116     20113     20112     20114     20117
     20114     20117     20120     20121     20114     20117     20120     20122
     20114     20117     20120     20123     20115     20114     20117     20118
     20115     20114     20117     20119     20115     20114     20117     20120
     20116     20114     20117     20118     20116     20114     20117     20119
     20116     20114     20117     20120     20117     20120     20123     20124
     20117     20120     20123     20125     20117     20120     20123     20126
     20118     20117     20120     20121     20118     20117     20120     20122
     20118     20117     20120     20123     20119     20117     20120     20121
     20119     20117     20120     20122     20119     20117     20120     20123
     20120     20123     20126     20127     20120     20123     20126     20128
     20120     20123     20126     20129     20121     20120     20123     20124
     20121     20120     20123     20125     20121     20120     20123     20126
     20122     20120     20123     20124     20122     20120     20123     20125
     20122     20120     20123     20126     20124     20123     20126     20127
     20124     20123     20126     20128     20124     20123     20126     20129
     20125     20123     20126     20127     20125     20123     20126     20128
     20125     20123     20126     20129     20130     20133     20136     20137
     20130     20133     20136     20138     20130     20133     20136     20139
     20131     20130     20133     20134     20131     20130     20133     20135
     20131     20130     20133     20136     20132     20130     20133     20134
     20132     20130     20133     20135     20132     20130     20133     20136
     20133     20136     20139     20140     20133     20136     20139     20141
     20133     20136     20139     20142     20134     20133     20136     20137
     20134     20133     20136     20138     20134     20133     20136     20139
     20135     20133     20136     20137     20135     20133     20136     20138
     20135     20133     20136     20139     20136     20139     20142     20143
     20136     20139     20142     20144     20136     20139     20142     20145
     20137     20136     20139     20140     20137     20136     20139     20141
     20137     20136     20139     20142     20138     20136     20139     20140
     20138     20136     20139     20141     20138     20136     20139     20142
     20139     20142     20145     20146     20139     20142     20145     20147
     20139     20142     20145     20148     20140     20139     20142     20143
     20140     20139     20142     20144     20140     20139     20142     20145
     20141     20139     20142     20143     20141     20139     20142     20144
     20141     20139     20142     20145     20142     20145     20148     20149
     20142     20145     20148     20150     20142     20145     20148     20151
     20143     20142     20145     20146     20143     20142     20145     20147
     20143     20142     20145     20148     20144     20142     20145     20146
     20144     20142     20145     20147     20144     20142     20145     20148
     20145     20148     20151     20152     20145     20148     20151     20153
     20145     20148     20151     20154     20146     20145     20148     20149
     20146     20145     20148     20150     20146     20145     20148     20151
     20147     20145     20148     20149     20147     20145     20148     20150
     20147     20145     20148     20151     20148     20151     20154     20155
     20148     20151     20154     20156     20148     20151     20154     20157
     20149     20148     20151     20152     20149     20148     20151     20153
     20149     20148     20151     20154     20150     20148     20151     20152
     20150     20148     20151     20153     20150     20148     20151     20154
     20151     20154     20157     20158     20151     20154     20157     20159
     20151     20154     20157     20160     20152     20151     20154     20155
     20152     20151     20154     20156     20152     20151     20154     20157
     20153     20151     20154     20155     20153     20151     20154     20156
     20153     20151     20154     20157     20154     20157     20160     20161
     20154     20157     20160     20162     20154     20157     20160     20163
     20155     20154     20157     20158     20155     20154     20157     20159
     20155     20154     20157     20160     20156     20154     20157     20158
     20156     20154     20157     20159     20156     20154     20157     20160
     20157     20160     20163     20164     20157     20160     20163     20165
     20157     20160     20163     20166     20158     20157     20160     20161
     20158     20157     20160     20162     20158     20157     20160     20163
     20159     20157     20160     20161     20159     20157     20160     20162
     20159     20157     20160     20163     20160     20163     20166     20167
     20160     20163     20166     20168     20160     20163     20166     20169
     20161     20160     20163     20164     20161     20160     20163     20165
     20161     20160     20163     20166     20162     20160     20163     20164
     20162     20160     20163     20165     20162     20160     20163     20166
     20163     20166     20169     20170     20163     20166     20169     20171
     20163     20166     20169     20172     20164     20163     20166     20167
     20164     20163     20166     20168     20164     20163     20166     20169
     20165     20163     20166     20167     20165     20163     20166     20168
     20165     20163     20166     20169     20166     20169     20172     20173
     20166     20169     20172     20174     20166     20169     20172     20175
     20167     20166     20169     20170     20167     20166     20169     20171
     20167     20166     20169     20172     20168     20166     20169     20170
     20168     20166     20169     20171     20168     20166     20169     20172
     20169     20172     20175     20176     20169     20172     20175     20177
     20169     20172     20175     20178     20170     20169     20172     20173
     20170     20169     20172     20174     20170     20169     20172     20175
     20171     20169     20172     20173     20171     20169     20172     20174
     20171     20169     20172     20175     20173     20172     20175     20176
     20173     20172     20175     20177     20173     20172     20175     20178
     20174     20172     20175     20176     20174     20172     20175     20177
     20174     20172     20175     20178     21824     21828     21830     21831
     21824     21828     21832     21833     21824     21828     21832     21834
     21824     21828     21832     21836     21824     21844     21840     21836
     21824     21844     21840     21841     21824     21844     21840     21842
     21824     21844     21849     21846     21825     21824     21826     21827
     21825     21824     21828     21829     21825     21824     21828     21830
     21825     21824     21828     21832     21825     21824     21844     21840
     21825     21824     21844     21845     21825     21824     21844     21849
     21826     21824     21828     21829     21826     21824     21828     21830
     21826     21824     21828     21832     21826     21824     21844     21840
     21826     21824     21844     21845     21826     21824     21844     21849
     21827     21826     21824     21828     21827     21826     21824     21844
     21828     21824     21844     21840     21828     21824     21844     21845
     21828     21824     21844     21849     21828     21832     21834     21835
     21828     21832     21836     21837     21828     21832     21836     21838
     21828     21832     21836     21840     21829     21828     21824     21844
     21829     21828     21830     21831     21829     21828     21832     21833
     21829     21828     21832     21834     21829     21828     21832     21836
     21830     21828     21824     21844     21830     21828     21832     21833
     21830     21828     21832     21834     21830     21828     21832     21836
     21831     21830     21828     21832     21832     21828     21824     21844
     21832     21836     21838     21839     21832     21836     21840     21841
     21832     21836     21840     21842     21832     21836     21840     21844
     21833     21832     21834     21835     21833     21832     21836     21837
     21833     21832     21836     21838     21833     21832     21836     21840
     21834     21832     21836     21837     21834     21832     21836     21838
     21834     21832     21836     21840     21835     21834     21832     21836
     21836     21840     21842     21843     21836     21840     21844     21845
     21836     21840     21844     21849     21837     21836     21838     21839
     21837     21836     21840     21841     21837     21836     21840     21842
     21837     21836     21840     21844     21838     21836     21840     21841
     21838     21836     21840     21842     21838     21836     21840     21844
     21839     21838     21836     21840     21840     21844     21849     21846
     21841     21840     21842     21843     21841     21840     21844     21845
     21841     21840     21844     21849     21842     21840     21844     21845
     21842     21840     21844     21849     21843     21842     21840     21844
     21844     21849     21846     21847     21844     21849     21846     21848
     21844     21849     21846     21850     21845     21844     21849     21846
     21846     21850     21851     21852     21846     21850     21851     21853
     21846     21850     21851     21854     21847     21846     21850     21851
     21848     21846     21850     21851     21849     21846     21850     21851
     21850     21851     21854     21855     21850     21851     21854     21856
     21850     21851     21854     21862     21851     21854     21856     21857
     21851     21854     21862     21863     21851     21854     21862     21864
     21851     21854     21862     21865     21852     21851     21854     21855
     21852     21851     21854     21856     21852     21851     21854     21862
     21853     21851     21854     21855     21853     21851     21854     21856
     21853     21851     21854     21862     21854     21856     21857     21858
     21854     21856     21857     21859     21854     21862     21865     21866
     21855     21854     21856     21857     21855     21854     21862     21863
     21855     21854     21862     21864     21855     21854     21862     21865
     21856     21854     21862     21863     21856     21854     21862     21864
     21856     21854     21862     21865     21856     21857     21859     21860
     21856     21857     21859     21861     21856     21857     21859     21871
     21857     21856     21854     21862     21857     21859     21871     21872
     21857     21859     21871     21873     21857     21859     21871     21874
     21858     21857     21859     21860     21858     21857     21859     21861
     21858     21857     21859     21871     21859     21871     21874     21875
     21859     21871     21874     21876     21859     21871     21874     21877
     21860     21859     21871     21872     21860     21859     21871     21873
     21860     21859     21871     21874     21861     21859     21871     21872
     21861     21859     21871     21873     21861     21859     21871     21874
     21862     21865     21866     21867     21862     21865     21866     21868
     21863     21862     21865     21866     21864     21862     21865     21866
     21865     21866     21868     21869     21865     21866     21868     21870
     21865     21866     21868     21918     21866     21868     21918     21919
     21866     21868     21918     21920     21866     21868     21918     21921
     21867     21866     21868     21869     21867     21866     21868     21870
     21867     21866     21868     21918     21868     21918     21921     21922
     21868     21918     21921     21923     21868     21918     21921     21924
     21869     21868     21918     21919     21869     21868     21918     21920
     21869     21868     21918     21921     21870     21868     21918     21919
     21870     21868     21918     21920     21870     21868     21918     21921
     21871     21874     21877     21878     21871     21874     21877     21879
     21872     21871     21874     21875     21872     21871     21874     21876
     21872     21871     21874     21877     21873     21871     21874     21875
     21873     21871     21874     21876     21873     21871     21874     21877
     21874     21877     21879     21880     21874     21877     21879     21881
     21875     21874     21877     21878     21875     21874     21877     21879
     21876     21874     21877     21878     21876     21874     21877     21879
     21877     21879     21881     21882     21877     21879     21881     21883
     21877     21879     21881     21884     21878     21877     21879     21880
     21878     21877     21879     21881     21879     21881     21884     21885
     21879     21881     21884     21886     21880     21879     21881     21882
     21880     21879     21881     21883     21880     21879     21881     21884
     21881     21884     21886     21887     21881     21884     21886     21888
     21882     21881     21884     21885     21882     21881     21884     21886
     21883     21881     21884     21885     21883     21881     21884     21886
     21884     21886     21888     21889     21884     21886     21888     21890
     21884     21886     21888     21891     21885     21884     21886     21887
     21885     21884     21886     21888     21886     21888     21891     21892
     21886     21888     21891     21893     21887     21886     21888     21889
     21887     21886     21888     21890     21887     21886     21888     21891
     21888     21891     21893     21894     21888     21891     21893     21895
     21889     21888     21891     21892     21889     21888     21891     21893
     21890     21888     21891     21892     21890     21888     21891     21893
     21891     21893     21895     21896     21891     21893     21895     21897
     21891     21893     21895     21898     21892     21891     21893     21894
     21892     21891     21893     21895     21893     21895     21898     21899
     21893     21895     21898     21900     21894     21893     21895     21896
     21894     21893     21895     21897     21894     21893     21895     21898
     21895     21898     21900     21901     21895     21898     21900     21902
     21896     21895     21898     21899     21896     21895     21898     21900
     21897     21895     21898     21899     21897     21895     21898     21900
     21898     21900     21902     21903     21898     21900     21902     21904
     21898     21900     21902     21905     21899     21898     21900     21901
     21899     21898     21900     21902     21900     21902     21905     21906
     21900     21902     21905     21907     21900     21902     21905     21908
     21901     21900     21902     21903     21901     21900     21902     21904
     21901     21900     21902     21905     21902     21905     21908     21909
     21902     21905     21908     21910     21902     21905     21908     21911
     21903     21902     21905     21906     21903     21902     21905     21907
     21903     21902     21905     21908     21904     21902     21905     21906
     21904     21902     21905     21907     21904     21902     21905     21908
     21905     21908     21911     21912     21905     21908     21911     21913
     21905     21908     21911     21914     21906     21905     21908     21909
     21906     21905     21908     21910     21906     21905     21908     21911
     21907     21905     21908     21909     21907     21905     21908     21910
     21907     21905     21908     21911     21908     21911     21914     21915
     21908     21911     21914     21916     21908     21911     21914     21917
     21909     21908     21911     21912     21909     21908     21911     21913
     21909     21908     21911     21914     21910     21908     21911     21912
     21910     21908     21911     21913     21910     21908     21911     21914
     21912     21911     21914     21915     21912     21911     21914     21916
     21912     21911     21914     21917     21913     21911     21914     21915
     21913     21911     21914     21916     21913     21911     21914     21917
     21918     21921     21924     21925     21918     21921     21924     21926
     21918     21921     21924     21927     21919     21918     21921     21922
     21919     21918     21921     21923     21919     21918     21921     21924
     21920     21918     21921     21922     21920     21918     21921     21923
     21920     21918     21921     21924     21921     21924     21927     21928
     21921     21924     21927     21929     21921     21924     21927     21930
     21922     21921     21924     21925     21922     21921     21924     21926
     21922     21921     21924     21927     21923     21921     21924     21925
     21923     21921     21924     21926     21923     21921     21924     21927
     21924     21927     21930     21931     21924     21927     21930     21932
     21924     21927     21930     21933     21925     21924     21927     21928
     21925     21924     21927     21929     21925     21924     21927     21930
     21926     21924     21927     21928     21926     21924     21927     21929
     21926     21924     21927     21930     21927     21930     21933     21934
     21927     21930     21933     21935     21927     21930     21933     21936
     21928     21927     21930     21931     21928     21927     21930     21932
     21928     21927     21930     21933     21929     21927     21930     21931
     21929     21927     21930     21932     21929     21927     21930     21933
     21930     21933     21936     21937     21930     21933     21936     21938
     21930     21933     21936     21939     21931     21930     21933     21934
     21931     21930     21933     21935     21931     21930     21933     21936
     21932     21930     21933     21934     21932     21930     21933     21935
     21932     21930     21933     21936     21933     21936     21939     21940
     21933     21936     21939     21941     21933     21936     21939     21942
     21934     21933     21936     21937     21934     21933     21936     21938
     21934     21933     21936     21939     21935     21933     21936     21937
     21935     21933     21936     21938     21935     21933     21936     21939
     21936     21939     21942     21943     21936     21939     21942     21944
     21936     21939     21942     21945     21937     21936     21939     21940
     21937     21936     21939     21941     21937     21936     21939     21942
     21938     21936     21939     21940     21938     21936     21939     21941
     21938     21936     21939     21942     21939     21942     21945     21946
     21939     21942     21945     21947     21939     21942     21945     21948
     21940     21939     21942     21943     21940     21939     21942     21944
     21940     21939     21942     21945     21941     21939     21942     21943
     21941     21939     21942     21944     21941     21939     21942     21945
     21942     21945     21948     21949     21942     21945     21948     21950
     21942     21945     21948     21951     21943     21942     21945     21946
     21943     21942     21945     21947     21943     21942     21945     21948
     21944     21942     21945     21946     21944     21942     21945     21947
     21944     21942     21945     21948     21945     21948     21951     21952
     21945     21948     21951     21953     21945     21948     21951     21954
     21946     21945     21948     21949     21946     21945     21948     21950
     21946     21945     21948     21951     21947     21945     21948     21949
     21947     21945     21948     21950     21947     21945     21948     21951
     21948     21951     21954     21955     21948     21951     21954     21956
     21948     21951     21954     21957     21949     21948     21951     21952
     21949     21948     21951     21953     21949     21948     21951     21954
     21950     21948     21951     21952     21950     21948     21951     21953
     21950     21948     21951     21954     21951     21954     21957     21958
     21951     21954     21957     21959     21951     21954     21957     21960
     21952     21951     21954     21955     21952     21951     21954     21956
     21952     21951     21954     21957     21953     21951     21954     21955
     21953     21951     21954     21956     21953     21951     21954     21957
     21954     21957     21960     21961     21954     21957     21960     21962
     21954     21957     21960     21963     21955     21954     21957     21958
     21955     21954     21957     21959     21955     21954     21957     21960
     21956     21954     21957     21958     21956     21954     21957     21959
     21956     21954     21957     21960     21957     21960     21963     21964
     21957     21960     21963     21965     21957     21960     21963     21966
     21958     21957     21960     21961     21958     21957     21960     21962
     21958     21957     21960     21963     21959     21957     21960     21961
     21959     21957     21960     21962     21959     21957     21960     21963
     21961     21960     21963     21964     21961     21960     21963     21965
     21961     21960     21963     21966     21962     21960     21963     21964
     21962     21960     21963     21965     21962     21960     21963     21966
     12677     12690     12693     12694     12677     12690     12693     12695
     12677     12690     12693     12700     12678     12677     12682     12683
     12678     12677     12682     12684     12678     12677     12682     12685
     12678     12677     12686     12687     12678     12677     12686     12688
     12678     12677     12686     12689     12678     12677     12690     12691
     12678     12677     12690     12692     12678     12677     12690     12693
     12679     12678     12677     12682     12679     12678     12677     12686
     12679     12678     12677     12690     12680     12678     12677     12682
     12680     12678     12677     12686     12680     12678     12677     12690
     12681     12678     12677     12682     12681     12678     12677     12686
     12681     12678     12677     12690     12682     12677     12686     12687
     12682     12677     12686     12688     12682     12677     12686     12689
     12682     12677     12690     12691     12682     12677     12690     12692
     12682     12677     12690     12693     12683     12682     12677     12686
     12683     12682     12677     12690     12684     12682     12677     12686
     12684     12682     12677     12690     12685     12682     12677     12686
     12685     12682     12677     12690     12686     12677     12690     12691
     12686     12677     12690     12692     12686     12677     12690     12693
     12687     12686     12677     12690     12688     12686     12677     12690
     12689     12686     12677     12690     12690     12693     12700     12696
     12691     12690     12693     12694     12691     12690     12693     12695
     12691     12690     12693     12700     12692     12690     12693     12694
     12692     12690     12693     12695     12692     12690     12693     12700
     12693     12700     12696     12697     12693     12700     12696     12698
     12693     12700     12696     12699     12694     12693     12700     12696
     12695     12693     12700     12696     12696     12699     12701     12702
     12696     12699     12701     12703     12696     12699     12701     12706
     12697     12696     12699     12701     12698     12696     12699     12701
     12699     12701     12706     12704     12699     12701     12706     12707
     12699     12701     12706     12708     12700     12696     12699     12701
     12701     12706     12704     12705     12701     12706     12704     12756
     12701     12706     12708     12709     12701     12706     12708     12710
     12701     12706     12708     12712     12702     12701     12706     12704
     12702     12701     12706     12707     12702     12701     12706     12708
     12703     12701     12706     12704     12703     12701     12706     12707
     12703     12701     12706     12708     12704     12706     12708     12709
     12704     12706     12708     12710     12704     12706     12708     12712
     12704     12756     12758     12759     12704     12756     12758     12760
     12704     12756     12758     12761     12705     12704     12706     12707
     12705     12704     12706     12708     12705     12704     12756     12757
     12705     12704     12756     12758     12706     12704     12756     12757
     12706     12704     12756     12758     12706     12708     12710     12711
     12706     12708     12712     12713     12706     12708     12712     12714
     12707     12706     12704     12756     12707     12706     12708     12709
     12707     12706     12708     12710     12707     12706     12708     12712
     12708     12706     12704     12756     12708     12712     12714     12715
     12708     12712     12714     12716     12709     12708     12710     12711
     12709     12708     12712     12713     12709     12708     12712     12714
     12710     12708     12712     12713     12710     12708     12712     12714
     12711     12710     12708     12712     12712     12714     12716     12717
     12712     12714     12716     12718     12712     12714     12716     12719
     12713     12712     12714     12715     12713     12712     12714     12716
     12714     12716     12719     12720     12714     12716     12719     12721
     12714     12716     12719     12722     12715     12714     12716     12717
     12715     12714     12716     12718     12715     12714     12716     12719
     12716     12719     12722     12723     12716     12719     12722     12724
     12716     12719     12722     12725     12717     12716     12719     12720
     12717     12716     12719     12721     12717     12716     12719     12722
     12718     12716     12719     12720     12718     12716     12719     12721
     12718     12716     12719     12722     12719     12722     12725     12726
     12719     12722     12725     12727     12719     12722     12725     12728
     12720     12719     12722     12723     12720     12719     12722     12724
     12720     12719     12722     12725     12721     12719     12722     12723
     12721     12719     12722     12724     12721     12719     12722     12725
     12722     12725     12728     12729     12722     12725     12728     12730
     12722     12725     12728     12731     12723     12722     12725     12726
     12723     12722     12725     12727     12723     12722     12725     12728
     12724     12722     12725     12726     12724     12722     12725     12727
     12724     12722     12725     12728     12725     12728     12731     12732
     12725     12728     12731     12733     12725     12728     12731     12734
     12726     12725     12728     12729     12726     12725     12728     12730
     12726     12725     12728     12731     12727     12725     12728     12729
     12727     12725     12728     12730     12727     12725     12728     12731
     12728     12731     12734     12735     12728     12731     12734     12736
     12728     12731     12734     12737     12729     12728     12731     12732
     12729     12728     12731     12733     12729     12728     12731     12734
     12730     12728     12731     12732     12730     12728     12731     12733
     12730     12728     12731     12734     12731     12734     12737     12738
     12731     12734     12737     12739     12731     12734     12737     12740
     12732     12731     12734     12735     12732     12731     12734     12736
     12732     12731     12734     12737     12733     12731     12734     12735
     12733     12731     12734     12736     12733     12731     12734     12737
     12734     12737     12740     12741     12734     12737     12740     12742
     12734     12737     12740     12743     12735     12734     12737     12738
     12735     12734     12737     12739     12735     12734     12737     12740
     12736     12734     12737     12738     12736     12734     12737     12739
     12736     12734     12737     12740     12737     12740     12743     12744
     12737     12740     12743     12745     12737     12740     12743     12746
     12738     12737     12740     12741     12738     12737     12740     12742
     12738     12737     12740     12743     12739     12737     12740     12741
     12739     12737     12740     12742     12739     12737     12740     12743
     12740     12743     12746     12747     12740     12743     12746     12748
     12740     12743     12746     12749     12741     12740     12743     12744
     12741     12740     12743     12745     12741     12740     12743     12746
     12742     12740     12743     12744     12742     12740     12743     12745
     12742     12740     12743     12746     12743     12746     12749     12750
     12743     12746     12749     12751     12743     12746     12749     12752
     12744     12743     12746     12747     12744     12743     12746     12748
     12744     12743     12746     12749     12745     12743     12746     12747
     12745     12743     12746     12748     12745     12743     12746     12749
     12746     12749     12752     12753     12746     12749     12752     12754
     12746     12749     12752     12755     12747     12746     12749     12750
     12747     12746     12749     12751     12747     12746     12749     12752
     12748     12746     12749     12750     12748     12746     12749     12751
     12748     12746     12749     12752     12750     12749     12752     12753
     12750     12749     12752     12754     12750     12749     12752     12755
     12751     12749     12752     12753     12751     12749     12752     12754
     12751     12749     12752     12755     12756     12758     12761     12762
     12756     12758     12761     12763     12756     12758     12761     12764
     12757     12756     12758     12759     12757     12756     12758     12760
     12757     12756     12758     12761     12758     12761     12764     12765
     12758     12761     12764     12766     12758     12761     12764     12767
     12759     12758     12761     12762     12759     12758     12761     12763
     12759     12758     12761     12764     12760     12758     12761     12762
     12760     12758     12761     12763     12760     12758     12761     12764
     12761     12764     12767     12768     12761     12764     12767     12769
     12761     12764     12767     12770     12762     12761     12764     12765
     12762     12761     12764     12766     12762     12761     12764     12767
     12763     12761     12764     12765     12763     12761     12764     12766
     12763     12761     12764     12767     12764     12767     12770     12771
     12764     12767     12770     12772     12764     12767     12770     12773
     12765     12764     12767     12768     12765     12764     12767     12769
     12765     12764     12767     12770     12766     12764     12767     12768
     12766     12764     12767     12769     12766     12764     12767     12770
     12767     12770     12773     12774     12767     12770     12773     12775
     12767     12770     12773     12776     12768     12767     12770     12771
     12768     12767     12770     12772     12768     12767     12770     12773
     12769     12767     12770     12771     12769     12767     12770     12772
     12769     12767     12770     12773     12770     12773     12776     12777
     12770     12773     12776     12778     12770     12773     12776     12779
     12771     12770     12773     12774     12771     12770     12773     12775
     12771     12770     12773     12776     12772     12770     12773     12774
     12772     12770     12773     12775     12772     12770     12773     12776
     12773     12776     12779     12780     12773     12776     12779     12781
     12774     12773     12776     12777     12774     12773     12776     12778
     12774     12773     12776     12779     12775     12773     12776     12777
     12775     12773     12776     12778     12775     12773     12776     12779
     12776     12779     12781     12782     12776     12779     12781     12783
     12777     12776     12779     12780     12777     12776     12779     12781
     12778     12776     12779     12780     12778     12776     12779     12781
     12779     12781     12783     12784     12779     12781     12783     12785
     12779     12781     12783     12786     12780     12779     12781     12782
     12780     12779     12781     12783     12781     12783     12786     12787
     12781     12783     12786     12788     12781     12783     12786     12789
     12782     12781     12783     12784     12782     12781     12783     12785
     12782     12781     12783     12786     12783     12786     12789     12790
     12783     12786     12789     12791     12783     12786     12789     12792
     12784     12783     12786     12787     12784     12783     12786     12788
     12784     12783     12786     12789     12785     12783     12786     12787
     12785     12783     12786     12788     12785     12783     12786     12789
     12786     12789     12792     12793     12786     12789     12792     12794
     12786     12789     12792     12795     12787     12786     12789     12790
     12787     12786     12789     12791     12787     12786     12789     12792
     12788     12786     12789     12790     12788     12786     12789     12791
     12788     12786     12789     12792     12789     12792     12795     12796
     12789     12792     12795     12797     12789     12792     12795     12798
     12790     12789     12792     12793     12790     12789     12792     12794
     12790     12789     12792     12795     12791     12789     12792     12793
     12791     12789     12792     12794     12791     12789     12792     12795
     12792     12795     12798     12799     12792     12795     12798     12800
     12792     12795     12798     12801     12793     12792     12795     12796
     12793     12792     12795     12797     12793     12792     12795     12798
     12794     12792     12795     12796     12794     12792     12795     12797
     12794     12792     12795     12798     12795     12798     12801     12802
     12795     12798     12801     12803     12795     12798     12801     12804
     12796     12795     12798     12799     12796     12795     12798     12800
     12796     12795     12798     12801     12797     12795     12798     12799
     12797     12795     12798     12800     12797     12795     12798     12801
     12798     12801     12804     12805     12798     12801     12804     12806
     12798     12801     12804     12807     12799     12798     12801     12802
     12799     12798     12801     12803     12799     12798     12801     12804
     12800     12798     12801     12802     12800     12798     12801     12803
     12800     12798     12801     12804     12802     12801     12804     12805
     12802     12801     12804     12806     12802     12801     12804     12807
     12803     12801     12804     12805     12803     12801     12804     12806
     12803     12801     12804     12807     17131     17135     17138     17139
     17131     17135     17138     17140     17131     17135     17138     17144
     17132     17131     17135     17136     17132     17131     17135     17137
     17132     17131     17135     17138     17133     17131     17135     17136
     17133     17131     17135     17137     17133     17131     17135     17138
     17134     17131     17135     17136     17134     17131     17135     17137
     17134     17131     17135     17138     17135     17138     17144     17141
     17136     17135     17138     17139     17136     17135     17138     17140
     17136     17135     17138     17144     17137     17135     17138     17139
     17137     17135     17138     17140     17137     17135     17138     17144
     17138     17144     17141     17142     17138     17144     17141     17143
     17138     17144     17141     17145     17139     17138     17144     17141
     17140     17138     17144     17141     17141     17145     17146     17147
     17141     17145     17146     17148     17141     17145     17146     17149
     17142     17141     17145     17146     17143     17141     17145     17146
     17144     17141     17145     17146     17145     17146     17149     17150
     17145     17146     17149     17151     17145     17146     17149     17157
     17146     17149     17151     17152     17146     17149     17157     17158
     17146     17149     17157     17159     17146     17149     17157     17160
     17147     17146     17149     17150     17147     17146     17149     17151
     17147     17146     17149     17157     17148     17146     17149     17150
     17148     17146     17149     17151     17148     17146     17149     17157
     17149     17151     17152     17153     17149     17151     17152     17154
     17149     17157     17160     17161     17150     17149     17151     17152
     17150     17149     17157     17158     17150     17149     17157     17159
     17150     17149     17157     17160     17151     17149     17157     17158
     17151     17149     17157     17159     17151     17149     17157     17160
     17151     17152     17154     17155     17151     17152     17154     17156
     17151     17152     17154     17166     17152     17151     17149     17157
     17152     17154     17166     17167     17152     17154     17166     17168
     17152     17154     17166     17169     17153     17152     17154     17155
     17153     17152     17154     17156     17153     17152     17154     17166
     17154     17166     17169     17170     17154     17166     17169     17171
     17154     17166     17169     17172     17155     17154     17166     17167
     17155     17154     17166     17168     17155     17154     17166     17169
     17156     17154     17166     17167     17156     17154     17166     17168
     17156     17154     17166     17169     17157     17160     17161     17162
     17157     17160     17161     17163     17158     17157     17160     17161
     17159     17157     17160     17161     17160     17161     17163     17164
     17160     17161     17163     17165     17160     17161     17163     17213
     17161     17163     17213     17214     17161     17163     17213     17215
     17161     17163     17213     17216     17162     17161     17163     17164
     17162     17161     17163     17165     17162     17161     17163     17213
     17163     17213     17216     17217     17163     17213     17216     17218
     17163     17213     17216     17219     17164     17163     17213     17214
     17164     17163     17213     17215     17164     17163     17213     17216
     17165     17163     17213     17214     17165     17163     17213     17215
     17165     17163     17213     17216     17166     17169     17172     17173
     17166     17169     17172     17174     17167     17166     17169     17170
     17167     17166     17169     17171     17167     17166     17169     17172
     17168     17166     17169     17170     17168     17166     17169     17171
     17168     17166     17169     17172     17169     17172     17174     17175
     17169     17172     17174     17176     17170     17169     17172     17173
     17170     17169     17172     17174     17171     17169     17172     17173
     17171     17169     17172     17174     17172     17174     17176     17177
     17172     17174     17176     17178     17172     17174     17176     17179
     17173     17172     17174     17175     17173     17172     17174     17176
     17174     17176     17179     17180     17174     17176     17179     17181
     17175     17174     17176     17177     17175     17174     17176     17178
     17175     17174     17176     17179     17176     17179     17181     17182
     17176     17179     17181     17183     17177     17176     17179     17180
     17177     17176     17179     17181     17178     17176     17179     17180
     17178     17176     17179     17181     17179     17181     17183     17184
     17179     17181     17183     17185     17179     17181     17183     17186
     17180     17179     17181     17182     17180     17179     17181     17183
     17181     17183     17186     17187     17181     17183     17186     17188
     17182     17181     17183     17184     17182     17181     17183     17185
     17182     17181     17183     17186     17183     17186     17188     17189
     17183     17186     17188     17190     17184     17183     17186     17187
     17184     17183     17186     17188     17185     17183     17186     17187
     17185     17183     17186     17188     17186     17188     17190     17191
     17186     17188     17190     17192     17186     17188     17190     17193
     17187     17186     17188     17189     17187     17186     17188     17190
     17188     17190     17193     17194     17188     17190     17193     17195
     17189     17188     17190     17191     17189     17188     17190     17192
     17189     17188     17190     17193     17190     17193     17195     17196
     17190     17193     17195     17197     17191     17190     17193     17194
     17191     17190     17193     17195     17192     17190     17193     17194
     17192     17190     17193     17195     17193     17195     17197     17198
     17193     17195     17197     17199     17193     17195     17197     17200
     17194     17193     17195     17196     17194     17193     17195     17197
     17195     17197     17200     17201     17195     17197     17200     17202
     17195     17197     17200     17203     17196     17195     17197     17198
     17196     17195     17197     17199     17196     17195     17197     17200
     17197     17200     17203     17204     17197     17200     17203     17205
     17197     17200     17203     17206     17198     17197     17200     17201
     17198     17197     17200     17202     17198     17197     17200     17203
     17199     17197     17200     17201     17199     17197     17200     17202
     17199     17197     17200     17203     17200     17203     17206     17207
     17200     17203     17206     17208     17200     17203     17206     17209
     17201     17200     17203     17204     17201     17200     17203     17205
     17201     17200     17203     17206     17202     17200     17203     17204
     17202     17200     17203     17205     17202     17200     17203     17206
     17203     17206     17209     17210     17203     17206     17209     17211
     17203     17206     17209     17212     17204     17203     17206     17207
     17204     17203     17206     17208     17204     17203     17206     17209
     17205     17203     17206     17207     17205     17203     17206     17208
     17205     17203     17206     17209     17207     17206     17209     17210
     17207     17206     17209     17211     17207     17206     17209     17212
     17208     17206     17209     17210     17208     17206     17209     17211
     17208     17206     17209     17212     17213     17216     17219     17220
     17213     17216     17219     17221     17213     17216     17219     17222
     17214     17213     17216     17217     17214     17213     17216     17218
     17214     17213     17216     17219     17215     17213     17216     17217
     17215     17213     17216     17218     17215     17213     17216     17219
     17216     17219     17222     17223     17216     17219     17222     17224
     17216     17219     17222     17225     17217     17216     17219     17220
     17217     17216     17219     17221     17217     17216     17219     17222
     17218     17216     17219     17220     17218     17216     17219     17221
     17218     17216     17219     17222     17219     17222     17225     17226
     17219     17222     17225     17227     17219     17222     17225     17228
     17220     17219     17222     17223     17220     17219     17222     17224
     17220     17219     17222     17225     17221     17219     17222     17223
     17221     17219     17222     17224     17221     17219     17222     17225
     17222     17225     17228     17229     17222     17225     17228     17230
     17222     17225     17228     17231     17223     17222     17225     17226
     17223     17222     17225     17227     17223     17222     17225     17228
     17224     17222     17225     17226     17224     17222     17225     17227
     17224     17222     17225     17228     17225     17228     17231     17232
     17225     17228     17231     17233     17225     17228     17231     17234
     17226     17225     17228     17229     17226     17225     17228     17230
     17226     17225     17228     17231     17227     17225     17228     17229
     17227     17225     17228     17230     17227     17225     17228     17231
     17228     17231     17234     17235     17228     17231     17234     17236
     17228     17231     17234     17237     17229     17228     17231     17232
     17229     17228     17231     17233     17229     17228     17231     17234
     17230     17228     17231     17232     17230     17228     17231     17233
     17230     17228     17231     17234     17231     17234     17237     17238
     17231     17234     17237     17239     17231     17234     17237     17240
     17232     17231     17234     17235     17232     17231     17234     17236
     17232     17231     17234     17237     17233     17231     17234     17235
     17233     17231     17234     17236     17233     17231     17234     17237
     17234     17237     17240     17241     17234     17237     17240     17242
     17234     17237     17240     17243     17235     17234     17237     17238
     17235     17234     17237     17239     17235     17234     17237     17240
     17236     17234     17237     17238     17236     17234     17237     17239
     17236     17234     17237     17240     17237     17240     17243     17244
     17237     17240     17243     17245     17237     17240     17243     17246
     17238     17237     17240     17241     17238     17237     17240     17242
     17238     17237     17240     17243     17239     17237     17240     17241
     17239     17237     17240     17242     17239     17237     17240     17243
     17240     17243     17246     17247     17240     17243     17246     17248
     17240     17243     17246     17249     17241     17240     17243     17244
     17241     17240     17243     17245     17241     17240     17243     17246
     17242     17240     17243     17244     17242     17240     17243     17245
     17242     17240     17243     17246     17243     17246     17249     17250
     17243     17246     17249     17251     17243     17246     17249     17252
     17244     17243     17246     17247     17244     17243     17246     17248
     17244     17243     17246     17249     17245     17243     17246     17247
     17245     17243     17246     17248     17245     17243     17246     17249
     17246     17249     17252     17253     17246     17249     17252     17254
     17246     17249     17252     17255     17247     17246     17249     17250
     17247     17246     17249     17251     17247     17246     17249     17252
     17248     17246     17249     17250     17248     17246     17249     17251
     17248     17246     17249     17252     17249     17252     17255     17256
     17249     17252     17255     17257     17249     17252     17255     17258
     17250     17249     17252     17253     17250     17249     17252     17254
     17250     17249     17252     17255     17251     17249     17252     17253
     17251     17249     17252     17254     17251     17249     17252     17255
     17252     17255     17258     17259     17252     17255     17258     17260
     17252     17255     17258     17261     17253     17252     17255     17256
     17253     17252     17255     17257     17253     17252     17255     17258
     17254     17252     17255     17256     17254     17252     17255     17257
     17254     17252     17255     17258     17256     17255     17258     17259
     17256     17255     17258     17260     17256     17255     17258     17261
     17257     17255     17258     17259     17257     17255     17258     17260
     17257     17255     17258     17261      4437      4441      4444      4445
      4437      4441      4444      4475      4437      4483      4480      4475
      4437      4483      4480      4481      4437      4483      4480      4482
      4438      4437      4439      4440      4438      4437      4441      4442
      4438      4437      4441      4443      4438      4437      4441      4444
      4438      4437      4483      4480      4438      4437      4483      4484
      4438      4437      4483      4485      4439      4437      4441      4442
      4439      4437      4441      4443      4439      4437      4441      4444
      4439      4437      4483      4480      4439      4437      4483      4484
      4439      4437      4483      4485      4440      4439      4437      4441
      4440      4439      4437      4483      4441      4437      4483      4480
      4441      4437      4483      4484      4441      4437      4483      4485
      4441      4444      4445      4446      4441      4444      4445      4447
      4441      4444      4475      4473      4441      4444      4475      4476
      4441      4444      4475      4480      4442      4441      4437      4483
      4442      4441      4444      4445      4442      4441      4444      4475
      4443      4441      4437      4483      4443      4441      4444      4445
      4443      4441      4444      4475      4444      4441      4437      4483
      4444      4445      4447      4448      4444      4445      4447      4449
      4444      4445      4447      4450      4444      4475      4473      4450
      4444      4475      4473      4470      4444      4475      4473      4474
      4444      4475      4476      4477      4444      4475      4476      4478
      4444      4475      4476      4479      4444      4475      4480      4481
      4444      4475      4480      4482      4444      4475      4480      4483
      4445      4444      4475      4473      4445      4444      4475      4476
      4445      4444      4475      4480      4445      4447      4450      4451
      4445      4447      4450      4452      4445      4447      4450      4473
      4446      4445      4444      4475      4446      4445      4447      4448
      4446      4445      4447      4449      4446      4445      4447      4450
      4447      4445      4444      4475      4447      4450      4452      4453
      4447      4450      4452      4454      4447      4450      4452      4462
      4447      4450      4473      4470      4447      4450      4473      4474
      4447      4450      4473      4475      4448      4447      4450      4451
      4448      4447      4450      4452      4448      4447      4450      4473
      4449      4447      4450      4451      4449      4447      4450      4452
      4449      4447      4450      4473      4450      4452      4454      4455
      4450      4452      4454      4456      4450      4452      4454      4457
      4450      4452      4462      4460      4450      4452      4462      4463
      4450      4452      4462      4467      4450      4473      4470      4467
      4450      4473      4470      4471      4450      4473      4470      4472
      4450      4473      4475      4476      4450      4473      4475      4480
      4451      4450      4452      4453      4451      4450      4452      4454
      4451      4450      4452      4462      4451      4450      4473      4470
      4451      4450      4473      4474      4451      4450      4473      4475
      4452      4450      4473      4470      4452      4450      4473      4474
      4452      4450      4473      4475      4452      4454      4457      4458
      4452      4454      4457      4459      4452      4454      4457      4460
      4452      4462      4460      4457      4452      4462      4460      4461
      4452      4462      4460      4486      4452      4462      4463      4464
      4452      4462      4463      4465      4452      4462      4463      4466
      4452      4462      4467      4468      4452      4462      4467      4469
      4452      4462      4467      4470      4453      4452      4450      4473
      4453      4452      4454      4455      4453      4452      4454      4456
      4453      4452      4454      4457      4453      4452      4462      4460
      4453      4452      4462      4463      4453      4452      4462      4467
      4454      4452      4450      4473      4454      4452      4462      4460
      4454      4452      4462      4463      4454      4452      4462      4467
      4454      4457      4460      4461      4454      4457      4460      4462
      4454      4457      4460      4486      4455      4454      4452      4462
      4455      4454      4457      4458      4455      4454      4457      4459
      4455      4454      4457      4460      4456      4454      4452      4462
      4456      4454      4457      4458      4456      4454      4457      4459
      4456      4454      4457      4460      4457      4454      4452      4462
      4457      4460      4462      4463      4457      4460      4462      4467
      4457      4460      4486      4487      4457      4460      4486      4488
      4457      4460      4486      4492      4458      4457      4460      4461
      4458      4457      4460      4462      4458      4457      4460      4486
      4459      4457      4460      4461      4459      4457      4460      4462
      4459      4457      4460      4486      4460      4462      4463      4464
      4460      4462      4463      4465      4460      4462      4463      4466
      4460      4462      4467      4468      4460      4462      4467      4469
      4460      4462      4467      4470      4460      4486      4488      4489
      4460      4486      4488      4490      4460      4486      4488      4491
      4460      4486      4492      4493      4460      4486      4492      4494
      4460      4486      4492      4495      4461      4460      4462      4463
      4461      4460      4462      4467      4461      4460      4486      4487
      4461      4460      4486      4488      4461      4460      4486      4492
      4462      4452      4450      4473      4462      4460      4486      4487
      4462      4460      4486      4488      4462      4460      4486      4492
      4462      4467      4470      4471      4462      4467      4470      4472
      4462      4467      4470      4473      4463      4462      4460      4486
      4463      4462      4467      4468      4463      4462      4467      4469
      4463      4462      4467      4470      4464      4463      4462      4467
      4465      4463      4462      4467      4466      4463      4462      4467
      4467      4462      4460      4486      4467      4470      4473      4474
      4467      4470      4473      4475      4468      4467      4470      4471
      4468      4467      4470      4472      4468      4467      4470      4473
      4469      4467      4470      4471      4469      4467      4470      4472
      4469      4467      4470      4473      4470      4473      4475      4476
      4470      4473      4475      4480      4471      4470      4473      4474
      4471      4470      4473      4475      4472      4470      4473      4474
      4472      4470      4473      4475      4473      4475      4476      4477
      4473      4475      4476      4478      4473      4475      4476      4479
      4473      4475      4480      4481      4473      4475      4480      4482
      4473      4475      4480      4483      4474      4473      4475      4476
      4474      4473      4475      4480      4475      4480      4483      4484
      4475      4480      4483      4485      4476      4475      4480      4481
      4476      4475      4480      4482      4476      4475      4480      4483
      4477      4476      4475      4480      4478      4476      4475      4480
      4479      4476      4475      4480      4481      4480      4483      4484
      4481      4480      4483      4485      4482      4480      4483      4484
      4482      4480      4483      4485      4486      4492      4495      4496
      4486      4492      4495      4497      4486      4492      4495      4498
      4487      4486      4488      4489      4487      4486      4488      4490
      4487      4486      4488      4491      4487      4486      4492      4493
      4487      4486      4492      4494      4487      4486      4492      4495
      4488      4486      4492      4493      4488      4486      4492      4494
      4488      4486      4492      4495      4489      4488      4486      4492
      4490      4488      4486      4492      4491      4488      4486      4492
      4492      4495      4498      4499      4492      4495      4498      4500
      4492      4495      4498      4501      4493      4492      4495      4496
      4493      4492      4495      4497      4493      4492      4495      4498
      4494      4492      4495      4496      4494      4492      4495      4497
      4494      4492      4495      4498      4495      4498      4501      4502
      4495      4498      4501      4503      4495      4498      4501      4507
      4496      4495      4498      4499      4496      4495      4498      4500
      4496      4495      4498      4501      4497      4495      4498      4499
      4497      4495      4498      4500      4497      4495      4498      4501
      4498      4501      4503      4504      4498      4501      4503      4505
      4498      4501      4503      4506      4498      4501      4507      4508
      4498      4501      4507      4509      4498      4501      4507      4510
      4499      4498      4501      4502      4499      4498      4501      4503
      4499      4498      4501      4507      4500      4498      4501      4502
      4500      4498      4501      4503      4500      4498      4501      4507
      4502      4501      4503      4504      4502      4501      4503      4505
      4502      4501      4503      4506      4502      4501      4507      4508
      4502      4501      4507      4509      4502      4501      4507      4510
      4503      4501      4507      4508      4503      4501      4507      4509
      4503      4501      4507      4510      4504      4503      4501      4507
      4505      4503      4501      4507      4506      4503      4501      4507
     17262     17266     17269     17270     17262     17266     17269     17271
     17262     17266     17269     17275     17263     17262     17266     17267
     17263     17262     17266     17268     17263     17262     17266     17269
     17264     17262     17266     17267     17264     17262     17266     17268
     17264     17262     17266     17269     17265     17262     17266     17267
     17265     17262     17266     17268     17265     17262     17266     17269
     17266     17269     17275     17272     17267     17266     17269     17270
     17267     17266     17269     17271     17267     17266     17269     17275
     17268     17266     17269     17270     17268     17266     17269     17271
     17268     17266     17269     17275     17269     17275     17272     17273
     17269     17275     17272     17274     17269     17275     17272     17276
     17270     17269     17275     17272     17271     17269     17275     17272
     17272     17276     17277     17278     17272     17276     17277     17279
     17272     17276     17277     17280     17273     17272     17276     17277
     17274     17272     17276     17277     17275     17272     17276     17277
     17276     17277     17280     17281     17276     17277     17280     17282
     17276     17277     17280     17288     17277     17280     17282     17283
     17277     17280     17288     17289     17277     17280     17288     17290
     17277     17280     17288     17291     17278     17277     17280     17281
     17278     17277     17280     17282     17278     17277     17280     17288
     17279     17277     17280     17281     17279     17277     17280     17282
     17279     17277     17280     17288     17280     17282     17283     17284
     17280     17282     17283     17285     17280     17288     17291     17292
     17281     17280     17282     17283     17281     17280     17288     17289
     17281     17280     17288     17290     17281     17280     17288     17291
     17282     17280     17288     17289     17282     17280     17288     17290
     17282     17280     17288     17291     17282     17283     17285     17286
     17282     17283     17285     17287     17282     17283     17285     17297
     17283     17282     17280     17288     17283     17285     17297     17298
     17283     17285     17297     17299     17283     17285     17297     17300
     17284     17283     17285     17286     17284     17283     17285     17287
     17284     17283     17285     17297     17285     17297     17300     17301
     17285     17297     17300     17302     17285     17297     17300     17303
     17286     17285     17297     17298     17286     17285     17297     17299
     17286     17285     17297     17300     17287     17285     17297     17298
     17287     17285     17297     17299     17287     17285     17297     17300
     17288     17291     17292     17293     17288     17291     17292     17294
     17289     17288     17291     17292     17290     17288     17291     17292
     17291     17292     17294     17295     17291     17292     17294     17296
     17291     17292     17294     17344     17292     17294     17344     17345
     17292     17294     17344     17346     17292     17294     17344     17347
     17293     17292     17294     17295     17293     17292     17294     17296
     17293     17292     17294     17344     17294     17344     17347     17348
     17294     17344     17347     17349     17294     17344     17347     17350
     17295     17294     17344     17345     17295     17294     17344     17346
     17295     17294     17344     17347     17296     17294     17344     17345
     17296     17294     17344     17346     17296     17294     17344     17347
     17297     17300     17303     17304     17297     17300     17303     17305
     17298     17297     17300     17301     17298     17297     17300     17302
     17298     17297     17300     17303     17299     17297     17300     17301
     17299     17297     17300     17302     17299     17297     17300     17303
     17300     17303     17305     17306     17300     17303     17305     17307
     17301     17300     17303     17304     17301     17300     17303     17305
     17302     17300     17303     17304     17302     17300     17303     17305
     17303     17305     17307     17308     17303     17305     17307     17309
     17303     17305     17307     17310     17304     17303     17305     17306
     17304     17303     17305     17307     17305     17307     17310     17311
     17305     17307     17310     17312     17306     17305     17307     17308
     17306     17305     17307     17309     17306     17305     17307     17310
     17307     17310     17312     17313     17307     17310     17312     17314
     17308     17307     17310     17311     17308     17307     17310     17312
     17309     17307     17310     17311     17309     17307     17310     17312
     17310     17312     17314     17315     17310     17312     17314     17316
     17310     17312     17314     17317     17311     17310     17312     17313
     17311     17310     17312     17314     17312     17314     17317     17318
     17312     17314     17317     17319     17313     17312     17314     17315
     17313     17312     17314     17316     17313     17312     17314     17317
     17314     17317     17319     17320     17314     17317     17319     17321
     17315     17314     17317     17318     17315     17314     17317     17319
     17316     17314     17317     17318     17316     17314     17317     17319
     17317     17319     17321     17322     17317     17319     17321     17323
     17317     17319     17321     17324     17318     17317     17319     17320
     17318     17317     17319     17321     17319     17321     17324     17325
     17319     17321     17324     17326     17320     17319     17321     17322
     17320     17319     17321     17323     17320     17319     17321     17324
     17321     17324     17326     17327     17321     17324     17326     17328
     17322     17321     17324     17325     17322     17321     17324     17326
     17323     17321     17324     17325     17323     17321     17324     17326
     17324     17326     17328     17329     17324     17326     17328     17330
     17324     17326     17328     17331     17325     17324     17326     17327
     17325     17324     17326     17328     17326     17328     17331     17332
     17326     17328     17331     17333     17326     17328     17331     17334
     17327     17326     17328     17329     17327     17326     17328     17330
     17327     17326     17328     17331     17328     17331     17334     17335
     17328     17331     17334     17336     17328     17331     17334     17337
     17329     17328     17331     17332     17329     17328     17331     17333
     17329     17328     17331     17334     17330     17328     17331     17332
     17330     17328     17331     17333     17330     17328     17331     17334
     17331     17334     17337     17338     17331     17334     17337     17339
     17331     17334     17337     17340     17332     17331     17334     17335
     17332     17331     17334     17336     17332     17331     17334     17337
     17333     17331     17334     17335     17333     17331     17334     17336
     17333     17331     17334     17337     17334     17337     17340     17341
     17334     17337     17340     17342     17334     17337     17340     17343
     17335     17334     17337     17338     17335     17334     17337     17339
     17335     17334     17337     17340     17336     17334     17337     17338
     17336     17334     17337     17339     17336     17334     17337     17340
     17338     17337     17340     17341     17338     17337     17340     17342
     17338     17337     17340     17343     17339     17337     17340     17341
     17339     17337     17340     17342     17339     17337     17340     17343
     17344     17347     17350     17351     17344     17347     17350     17352
     17344     17347     17350     17353     17345     17344     17347     17348
     17345     17344     17347     17349     17345     17344     17347     17350
     17346     17344     17347     17348     17346     17344     17347     17349
     17346     17344     17347     17350     17347     17350     17353     17354
     17347     17350     17353     17355     17347     17350     17353     17356
     17348     17347     17350     17351     17348     17347     17350     17352
     17348     17347     17350     17353     17349     17347     17350     17351
     17349     17347     17350     17352     17349     17347     17350     17353
     17350     17353     17356     17357     17350     17353     17356     17358
     17350     17353     17356     17359     17351     17350     17353     17354
     17351     17350     17353     17355     17351     17350     17353     17356
     17352     17350     17353     17354     17352     17350     17353     17355
     17352     17350     17353     17356     17353     17356     17359     17360
     17353     17356     17359     17361     17353     17356     17359     17362
     17354     17353     17356     17357     17354     17353     17356     17358
     17354     17353     17356     17359     17355     17353     17356     17357
     17355     17353     17356     17358     17355     17353     17356     17359
     17356     17359     17362     17363     17356     17359     17362     17364
     17356     17359     17362     17365     17357     17356     17359     17360
     17357     17356     17359     17361     17357     17356     17359     17362
     17358     17356     17359     17360     17358     17356     17359     17361
     17358     17356     17359     17362     17359     17362     17365     17366
     17359     17362     17365     17367     17359     17362     17365     17368
     17360     17359     17362     17363     17360     17359     17362     17364
     17360     17359     17362     17365     17361     17359     17362     17363
     17361     17359     17362     17364     17361     17359     17362     17365
     17362     17365     17368     17369     17362     17365     17368     17370
     17362     17365     17368     17371     17363     17362     17365     17366
     17363     17362     17365     17367     17363     17362     17365     17368
     17364     17362     17365     17366     17364     17362     17365     17367
     17364     17362     17365     17368     17365     17368     17371     17372
     17365     17368     17371     17373     17365     17368     17371     17374
     17366     17365     17368     17369     17366     17365     17368     17370
     17366     17365     17368     17371     17367     17365     17368     17369
     17367     17365     17368     17370     17367     17365     17368     17371
     17368     17371     17374     17375     17368     17371     17374     17376
     17368     17371     17374     17377     17369     17368     17371     17372
     17369     17368     17371     17373     17369     17368     17371     17374
     17370     17368     17371     17372     17370     17368     17371     17373
     17370     17368     17371     17374     17371     17374     17377     17378
     17371     17374     17377     17379     17371     17374     17377     17380
     17372     17371     17374     17375     17372     17371     17374     17376
     17372     17371     17374     17377     17373     17371     17374     17375
     17373     17371     17374     17376     17373     17371     17374     17377
     17374     17377     17380     17381     17374     17377     17380     17382
     17374     17377     17380     17383     17375     17374     17377     17378
     17375     17374     17377     17379     17375     17374     17377     17380
     17376     17374     17377     17378     17376     17374     17377     17379
     17376     17374     17377     17380     17377     17380     17383     17384
     17377     17380     17383     17385     17377     17380     17383     17386
     17378     17377     17380     17381     17378     17377     17380     17382
     17378     17377     17380     17383     17379     17377     17380     17381
     17379     17377     17380     17382     17379     17377     17380     17383
     17380     17383     17386     17387     17380     17383     17386     17388
     17380     17383     17386     17389     17381     17380     17383     17384
     17381     17380     17383     17385     17381     17380     17383     17386
     17382     17380     17383     17384     17382     17380     17383     17385
     17382     17380     17383     17386     17383     17386     17389     17390
     17383     17386     17389     17391     17383     17386     17389     17392
     17384     17383     17386     17387     17384     17383     17386     17388
     17384     17383     17386     17389     17385     17383     17386     17387
     17385     17383     17386     17388     17385     17383     17386     17389
     17387     17386     17389     17390     17387     17386     17389     17391
     17387     17386     17389     17392     17388     17386     17389     17390
     17388     17386     17389     17391     17388     17386     17389     17392
     20179     20192     20195     20196     20179     20192     20195     20197
     20179     20192     20195     20201     20180     20179     20184     20185
     20180     20179     20184     20186     20180     20179     20184     20187
     20180     20179     20188     20189     20180     20179     20188     20190
     20180     20179     20188     20191     20180     20179     20192     20193
     20180     20179     20192     20194     20180     20179     20192     20195
     20181     20180     20179     20184     20181     20180     20179     20188
     20181     20180     20179     20192     20182     20180     20179     20184
     20182     20180     20179     20188     20182     20180     20179     20192
     20183     20180     20179     20184     20183     20180     20179     20188
     20183     20180     20179     20192     20184     20179     20188     20189
     20184     20179     20188     20190     20184     20179     20188     20191
     20184     20179     20192     20193     20184     20179     20192     20194
     20184     20179     20192     20195     20185     20184     20179     20188
     20185     20184     20179     20192     20186     20184     20179     20188
     20186     20184     20179     20192     20187     20184     20179     20188
     20187     20184     20179     20192     20188     20179     20192     20193
     20188     20179     20192     20194     20188     20179     20192     20195
     20189     20188     20179     20192     20190     20188     20179     20192
     20191     20188     20179     20192     20192     20195     20201     20198
     20193     20192     20195     20196     20193     20192     20195     20197
     20193     20192     20195     20201     20194     20192     20195     20196
     20194     20192     20195     20197     20194     20192     20195     20201
     20195     20201     20198     20199     20195     20201     20198     20200
     20195     20201     20198     20202     20196     20195     20201     20198
     20197     20195     20201     20198     20198     20202     20203     20204
     20198     20202     20203     20205     20198     20202     20203     20206
     20199     20198     20202     20203     20200     20198     20202     20203
     20201     20198     20202     20203     20202     20203     20206     20207
     20202     20203     20206     20208     20202     20203     20206     20214
     20203     20206     20208     20209     20203     20206     20214     20215
     20203     20206     20214     20216     20203     20206     20214     20217
     20204     20203     20206     20207     20204     20203     20206     20208
     20204     20203     20206     20214     20205     20203     20206     20207
     20205     20203     20206     20208     20205     20203     20206     20214
     20206     20208     20209     20210     20206     20208     20209     20211
     20206     20214     20217     20218     20207     20206     20208     20209
     20207     20206     20214     20215     20207     20206     20214     20216
     20207     20206     20214     20217     20208     20206     20214     20215
     20208     20206     20214     20216     20208     20206     20214     20217
     20208     20209     20211     20212     20208     20209     20211     20213
     20208     20209     20211     20223     20209     20208     20206     20214
     20209     20211     20223     20224     20209     20211     20223     20225
     20209     20211     20223     20226     20210     20209     20211     20212
     20210     20209     20211     20213     20210     20209     20211     20223
     20211     20223     20226     20227     20211     20223     20226     20228
     20211     20223     20226     20229     20212     20211     20223     20224
     20212     20211     20223     20225     20212     20211     20223     20226
     20213     20211     20223     20224     20213     20211     20223     20225
     20213     20211     20223     20226     20214     20217     20218     20219
     20214     20217     20218     20220     20215     20214     20217     20218
     20216     20214     20217     20218     20217     20218     20220     20221
     20217     20218     20220     20222     20217     20218     20220     20268
     20218     20220     20268     20269     20218     20220     20268     20270
     20218     20220     20268     20271     20219     20218     20220     20221
     20219     20218     20220     20222     20219     20218     20220     20268
     20220     20268     20271     20272     20220     20268     20271     20273
     20220     20268     20271     20274     20221     20220     20268     20269
     20221     20220     20268     20270     20221     20220     20268     20271
     20222     20220     20268     20269     20222     20220     20268     20270
     20222     20220     20268     20271     20223     20226     20229     20230
     20223     20226     20229     20231     20223     20226     20229     20232
     20224     20223     20226     20227     20224     20223     20226     20228
     20224     20223     20226     20229     20225     20223     20226     20227
     20225     20223     20226     20228     20225     20223     20226     20229
     20226     20229     20232     20233     20226     20229     20232     20234
     20226     20229     20232     20235     20227     20226     20229     20230
     20227     20226     20229     20231     20227     20226     20229     20232
     20228     20226     20229     20230     20228     20226     20229     20231
     20228     20226     20229     20232     20229     20232     20235     20236
     20229     20232     20235     20237     20229     20232     20235     20238
     20230     20229     20232     20233     20230     20229     20232     20234
     20230     20229     20232     20235     20231     20229     20232     20233
     20231     20229     20232     20234     20231     20229     20232     20235
     20232     20235     20238     20239     20232     20235     20238     20240
     20232     20235     20238     20241     20233     20232     20235     20236
     20233     20232     20235     20237     20233     20232     20235     20238
     20234     20232     20235     20236     20234     20232     20235     20237
     20234     20232     20235     20238     20235     20238     20241     20242
     20235     20238     20241     20243     20236     20235     20238     20239
     20236     20235     20238     20240     20236     20235     20238     20241
     20237     20235     20238     20239     20237     20235     20238     20240
     20237     20235     20238     20241     20238     20241     20243     20244
     20238     20241     20243     20245     20239     20238     20241     20242
     20239     20238     20241     20243     20240     20238     20241     20242
     20240     20238     20241     20243     20241     20243     20245     20246
     20241     20243     20245     20247     20241     20243     20245     20248
     20242     20241     20243     20244     20242     20241     20243     20245
     20243     20245     20248     20249     20243     20245     20248     20250
     20244     20243     20245     20246     20244     20243     20245     20247
     20244     20243     20245     20248     20245     20248     20250     20251
     20245     20248     20250     20252     20246     20245     20248     20249
     20246     20245     20248     20250     20247     20245     20248     20249
     20247     20245     20248     20250     20248     20250     20252     20253
     20248     20250     20252     20254     20248     20250     20252     20255
     20249     20248     20250     20251     20249     20248     20250     20252
     20250     20252     20255     20256     20250     20252     20255     20257
     20250     20252     20255     20258     20251     20250     20252     20253
     20251     20250     20252     20254     20251     20250     20252     20255
     20252     20255     20258     20259     20252     20255     20258     20260
     20252     20255     20258     20261     20253     20252     20255     20256
     20253     20252     20255     20257     20253     20252     20255     20258
     20254     20252     20255     20256     20254     20252     20255     20257
     20254     20252     20255     20258     20255     20258     20261     20262
     20255     20258     20261     20263     20255     20258     20261     20264
     20256     20255     20258     20259     20256     20255     20258     20260
     20256     20255     20258     20261     20257     20255     20258     20259
     20257     20255     20258     20260     20257     20255     20258     20261
     20258     20261     20264     20265     20258     20261     20264     20266
     20258     20261     20264     20267     20259     20258     20261     20262
     20259     20258     20261     20263     20259     20258     20261     20264
     20260     20258     20261     20262     20260     20258     20261     20263
     20260     20258     20261     20264     20262     20261     20264     20265
     20262     20261     20264     20266     20262     20261     20264     20267
     20263     20261     20264     20265     20263     20261     20264     20266
     20263     20261     20264     20267     20268     20271     20274     20275
     20268     20271     20274     20276     20268     20271     20274     20277
     20269     20268     20271     20272     20269     20268     20271     20273
     20269     20268     20271     20274     20270     20268     20271     20272
     20270     20268     20271     20273     20270     20268     20271     20274
     20271     20274     20277     20278     20271     20274     20277     20279
     20271     20274     20277     20280     20272     20271     20274     20275
     20272     20271     20274     20276     20272     20271     20274     20277
     20273     20271     20274     20275     20273     20271     20274     20276
     20273     20271     20274     20277     20274     20277     20280     20281
     20274     20277     20280     20282     20274     20277     20280     20283
     20275     20274     20277     20278     20275     20274     20277     20279
     20275     20274     20277     20280     20276     20274     20277     20278
     20276     20274     20277     20279     20276     20274     20277     20280
     20277     20280     20283     20284     20277     20280     20283     20285
     20277     20280     20283     20286     20278     20277     20280     20281
     20278     20277     20280     20282     20278     20277     20280     20283
     20279     20277     20280     20281     20279     20277     20280     20282
     20279     20277     20280     20283     20280     20283     20286     20287
     20280     20283     20286     20288     20280     20283     20286     20289
     20281     20280     20283     20284     20281     20280     20283     20285
     20281     20280     20283     20286     20282     20280     20283     20284
     20282     20280     20283     20285     20282     20280     20283     20286
     20283     20286     20289     20290     20283     20286     20289     20291
     20283     20286     20289     20292     20284     20283     20286     20287
     20284     20283     20286     20288     20284     20283     20286     20289
     20285     20283     20286     20287     20285     20283     20286     20288
     20285     20283     20286     20289     20286     20289     20292     20293
     20286     20289     20292     20294     20286     20289     20292     20295
     20287     20286     20289     20290     20287     20286     20289     20291
     20287     20286     20289     20292     20288     20286     20289     20290
     20288     20286     20289     20291     20288     20286     20289     20292
     20289     20292     20295     20296     20289     20292     20295     20297
     20289     20292     20295     20298     20290     20289     20292     20293
     20290     20289     20292     20294     20290     20289     20292     20295
     20291     20289     20292     20293     20291     20289     20292     20294
     20291     20289     20292     20295     20292     20295     20298     20299
     20292     20295     20298     20300     20292     20295     20298     20301
     20293     20292     20295     20296     20293     20292     20295     20297
     20293     20292     20295     20298     20294     20292     20295     20296
     20294     20292     20295     20297     20294     20292     20295     20298
     20295     20298     20301     20302     20295     20298     20301     20303
     20295     20298     20301     20304     20296     20295     20298     20299
     20296     20295     20298     20300     20296     20295     20298     20301
     20297     20295     20298     20299     20297     20295     20298     20300
     20297     20295     20298     20301     20298     20301     20304     20305
     20298     20301     20304     20306     20298     20301     20304     20307
     20299     20298     20301     20302     20299     20298     20301     20303
     20299     20298     20301     20304     20300     20298     20301     20302
     20300     20298     20301     20303     20300     20298     20301     20304
     20301     20304     20307     20308     20301     20304     20307     20309
     20301     20304     20307     20310     20302     20301     20304     20305
     20302     20301     20304     20306     20302     20301     20304     20307
     20303     20301     20304     20305     20303     20301     20304     20306
     20303     20301     20304     20307     20304     20307     20310     20311
     20304     20307     20310     20312     20304     20307     20310     20313
     20305     20304     20307     20308     20305     20304     20307     20309
     20305     20304     20307     20310     20306     20304     20307     20308
     20306     20304     20307     20309     20306     20304     20307     20310
     20307     20310     20313     20314     20307     20310     20313     20315
     20307     20310     20313     20316     20308     20307     20310     20311
     20308     20307     20310     20312     20308     20307     20310     20313
     20309     20307     20310     20311     20309     20307     20310     20312
     20309     20307     20310     20313     20311     20310     20313     20314
     20311     20310     20313     20315     20311     20310     20313     20316
     20312     20310     20313     20314     20312     20310     20313     20315
     20312     20310     20313     20316      8657      8658      8673      8674
      8657      8658      8673      8675      8657      8658      8673      8679
      8658      8657      8661      8662      8658      8657      8661      8663
      8658      8657      8661      8664      8658      8657      8665      8666
      8658      8657      8665      8667      8658      8657      8665      8668
      8658      8657      8669      8670      8658      8657      8669      8671
      8658      8657      8669      8672      8658      8673      8679      8676
      8659      8658      8657      8661      8659      8658      8657      8665
      8659      8658      8657      8669      8659      8658      8673      8674
      8659      8658      8673      8675      8659      8658      8673      8679
      8660      8658      8657      8661      8660      8658      8657      8665
      8660      8658      8657      8669      8660      8658      8673      8674
      8660      8658      8673      8675      8660      8658      8673      8679
      8661      8657      8658      8673      8661      8657      8665      8666
      8661      8657      8665      8667      8661      8657      8665      8668
      8661      8657      8669      8670      8661      8657      8669      8671
      8661      8657      8669      8672      8662      8661      8657      8665
      8662      8661      8657      8669      8663      8661      8657      8665
      8663      8661      8657      8669      8664      8661      8657      8665
      8664      8661      8657      8669      8665      8657      8658      8673
      8665      8657      8669      8670      8665      8657      8669      8671
      8665      8657      8669      8672      8666      8665      8657      8669
      8667      8665      8657      8669      8668      8665      8657      8669
      8669      8657      8658      8673      8673      8679      8676      8677
      8673      8679      8676      8678      8673      8679      8676      8680
      8674      8673      8679      8676      8675      8673      8679      8676
      8676      8680      8681      8682      8676      8680      8681      8683
      8676      8680      8681      8684      8677      8676      8680      8681
      8678      8676      8680      8681      8679      8676      8680      8681
      8680      8681      8684      8685      8680      8681      8684      8686
      8680      8681      8684      8692      8681      8684      8686      8687
      8681      8684      8692      8693      8681      8684      8692      8694
      8681      8684      8692      8695      8682      8681      8684      8685
      8682      8681      8684      8686      8682      8681      8684      8692
      8683      8681      8684      8685      8683      8681      8684      8686
      8683      8681      8684      8692      8684      8686      8687      8688
      8684      8686      8687      8689      8684      8692      8695      8696
      8685      8684      8686      8687      8685      8684      8692      8693
      8685      8684      8692      8694      8685      8684      8692      8695
      8686      8684      8692      8693      8686      8684      8692      8694
      8686      8684      8692      8695      8686      8687      8689      8690
      8686      8687      8689      8691      8686      8687      8689      8701
      8687      8686      8684      8692      8687      8689      8701      8702
      8687      8689      8701      8703      8687      8689      8701      8704
      8688      8687      8689      8690      8688      8687      8689      8691
      8688      8687      8689      8701      8689      8701      8704      8705
      8689      8701      8704      8706      8689      8701      8704      8707
      8690      8689      8701      8702      8690      8689      8701      8703
      8690      8689      8701      8704      8691      8689      8701      8702
      8691      8689      8701      8703      8691      8689      8701      8704
      8692      8695      8696      8697      8692      8695      8696      8698
      8693      8692      8695      8696      8694      8692      8695      8696
      8695      8696      8698      8699      8695      8696      8698      8700
      8695      8696      8698      8748      8696      8698      8748      8749
      8696      8698      8748      8750      8696      8698      8748      8751
      8697      8696      8698      8699      8697      8696      8698      8700
      8697      8696      8698      8748      8698      8748      8751      8752
      8698      8748      8751      8753      8698      8748      8751      8754
      8699      8698      8748      8749      8699      8698      8748      8750
      8699      8698      8748      8751      8700      8698      8748      8749
      8700      8698      8748      8750      8700      8698      8748      8751
      8701      8704      8707      8708      8701      8704      8707      8709
      8702      8701      8704      8705      8702      8701      8704      8706
      8702      8701      8704      8707      8703      8701      8704      8705
      8703      8701      8704      8706      8703      8701      8704      8707
      8704      8707      8709      8710      8704      8707      8709      8711
      8705      8704      8707      8708      8705      8704      8707      8709
      8706      8704      8707      8708      8706      8704      8707      8709
      8707      8709      8711      8712      8707      8709      8711      8713
      8707      8709      8711      8714      8708      8707      8709      8710
      8708      8707      8709      8711      8709      8711      8714      8715
      8709      8711      8714      8716      8710      8709      8711      8712
      8710      8709      8711      8713      8710      8709      8711      8714
      8711      8714      8716      8717      8711      8714      8716      8718
      8712      8711      8714      8715      8712      8711      8714      8716
      8713      8711      8714      8715      8713      8711      8714      8716
      8714      8716      8718      8719      8714      8716      8718      8720
      8714      8716      8718      8721      8715      8714      8716      8717
      8715      8714      8716      8718      8716      8718      8721      8722
      8716      8718      8721      8723      8717      8716      8718      8719
      8717      8716      8718      8720      8717      8716      8718      8721
      8718      8721      8723      8724      8718      8721      8723      8725
      8719      8718      8721      8722      8719      8718      8721      8723
      8720      8718      8721      8722      8720      8718      8721      8723
      8721      8723      8725      8726      8721      8723      8725      8727
      8721      8723      8725      8728      8722      8721      8723      8724
      8722      8721      8723      8725      8723      8725      8728      8729
      8723      8725      8728      8730      8724      8723      8725      8726
      8724      8723      8725      8727      8724      8723      8725      8728
      8725      8728      8730      8731      8725      8728      8730      8732
      8726      8725      8728      8729      8726      8725      8728      8730
      8727      8725      8728      8729      8727      8725      8728      8730
      8728      8730      8732      8733      8728      8730      8732      8734
      8728      8730      8732      8735      8729      8728      8730      8731
      8729      8728      8730      8732      8730      8732      8735      8736
      8730      8732      8735      8737      8730      8732      8735      8738
      8731      8730      8732      8733      8731      8730      8732      8734
      8731      8730      8732      8735      8732      8735      8738      8739
      8732      8735      8738      8740      8732      8735      8738      8741
      8733      8732      8735      8736      8733      8732      8735      8737
      8733      8732      8735      8738      8734      8732      8735      8736
      8734      8732      8735      8737      8734      8732      8735      8738
      8735      8738      8741      8742      8735      8738      8741      8743
      8735      8738      8741      8744      8736      8735      8738      8739
      8736      8735      8738      8740      8736      8735      8738      8741
      8737      8735      8738      8739      8737      8735      8738      8740
      8737      8735      8738      8741      8738      8741      8744      8745
      8738      8741      8744      8746      8738      8741      8744      8747
      8739      8738      8741      8742      8739      8738      8741      8743
      8739      8738      8741      8744      8740      8738      8741      8742
      8740      8738      8741      8743      8740      8738      8741      8744
      8742      8741      8744      8745      8742      8741      8744      8746
      8742      8741      8744      8747      8743      8741      8744      8745
      8743      8741      8744      8746      8743      8741      8744      8747
      8748      8751      8754      8755      8748      8751      8754      8756
      8748      8751      8754      8757      8749      8748      8751      8752
      8749      8748      8751      8753      8749      8748      8751      8754
      8750      8748      8751      8752      8750      8748      8751      8753
      8750      8748      8751      8754      8751      8754      8757      8758
      8751      8754      8757      8759      8751      8754      8757      8760
      8752      8751      8754      8755      8752      8751      8754      8756
      8752      8751      8754      8757      8753      8751      8754      8755
      8753      8751      8754      8756      8753      8751      8754      8757
      8754      8757      8760      8761      8754      8757      8760      8762
      8754      8757      8760      8763      8755      8754      8757      8758
      8755      8754      8757      8759      8755      8754      8757      8760
      8756      8754      8757      8758      8756      8754      8757      8759
      8756      8754      8757      8760      8757      8760      8763      8764
      8757      8760      8763      8765      8757      8760      8763      8766
      8758      8757      8760      8761      8758      8757      8760      8762
      8758      8757      8760      8763      8759      8757      8760      8761
      8759      8757      8760      8762      8759      8757      8760      8763
      8760      8763      8766      8767      8760      8763      8766      8768
      8760      8763      8766      8769      8761      8760      8763      8764
      8761      8760      8763      8765      8761      8760      8763      8766
      8762      8760      8763      8764      8762      8760      8763      8765
      8762      8760      8763      8766      8763      8766      8769      8770
      8763      8766      8769      8771      8763      8766      8769      8772
      8764      8763      8766      8767      8764      8763      8766      8768
      8764      8763      8766      8769      8765      8763      8766      8767
      8765      8763      8766      8768      8765      8763      8766      8769
      8766      8769      8772      8773      8766      8769      8772      8774
      8766      8769      8772      8775      8767      8766      8769      8770
      8767      8766      8769      8771      8767      8766      8769      8772
      8768      8766      8769      8770      8768      8766      8769      8771
      8768      8766      8769      8772      8769      8772      8775      8776
      8769      8772      8775      8777      8769      8772      8775      8778
      8770      8769      8772      8773      8770      8769      8772      8774
      8770      8769      8772      8775      8771      8769      8772      8773
      8771      8769      8772      8774      8771      8769      8772      8775
      8772      8775      8778      8779      8772      8775      8778      8780
      8772      8775      8778      8781      8773      8772      8775      8776
      8773      8772      8775      8777      8773      8772      8775      8778
      8774      8772      8775      8776      8774      8772      8775      8777
      8774      8772      8775      8778      8775      8778      8781      8782
      8775      8778      8781      8783      8775      8778      8781      8784
      8776      8775      8778      8779      8776      8775      8778      8780
      8776      8775      8778      8781      8777      8775      8778      8779
      8777      8775      8778      8780      8777      8775      8778      8781
      8778      8781      8784      8785      8778      8781      8784      8786
      8778      8781      8784      8787      8779      8778      8781      8782
      8779      8778      8781      8783      8779      8778      8781      8784
      8780      8778      8781      8782      8780      8778      8781      8783
      8780      8778      8781      8784      8781      8784      8787      8788
      8781      8784      8787      8789      8781      8784      8787      8790
      8782      8781      8784      8785      8782      8781      8784      8786
      8782      8781      8784      8787      8783      8781      8784      8785
      8783      8781      8784      8786      8783      8781      8784      8787
      8784      8787      8790      8791      8784      8787      8790      8792
      8784      8787      8790      8793      8785      8784      8787      8788
      8785      8784      8787      8789      8785      8784      8787      8790
      8786      8784      8787      8788      8786      8784      8787      8789
      8786      8784      8787      8790      8787      8790      8793      8794
      8787      8790      8793      8795      8787      8790      8793      8796
      8788      8787      8790      8791      8788      8787      8790      8792
      8788      8787      8790      8793      8789      8787      8790      8791
      8789      8787      8790      8792      8789      8787      8790      8793
      8791      8790      8793      8794      8791      8790      8793      8795
      8791      8790      8793      8796      8792      8790      8793      8794
      8792      8790      8793      8795      8792      8790      8793      8796
     17393     17397     17400     17401     17393     17397     17400     17402
     17393     17397     17400     17406     17394     17393     17397     17398
     17394     17393     17397     17399     17394     17393     17397     17400
     17395     17393     17397     17398     17395     17393     17397     17399
     17395     17393     17397     17400     17396     17393     17397     17398
     17396     17393     17397     17399     17396     17393     17397     17400
     17397     17400     17406     17403     17398     17397     17400     17401
     17398     17397     17400     17402     17398     17397     17400     17406
     17399     17397     17400     17401     17399     17397     17400     17402
     17399     17397     17400     17406     17400     17406     17403     17404
     17400     17406     17403     17405     17400     17406     17403     17407
     17401     17400     17406     17403     17402     17400     17406     17403
     17403     17407     17408     17409     17403     17407     17408     17410
     17403     17407     17408     17411     17404     17403     17407     17408
     17405     17403     17407     17408     17406     17403     17407     17408
     17407     17408     17411     17412     17407     17408     17411     17413
     17407     17408     17411     17419     17408     17411     17413     17414
     17408     17411     17419     17420     17408     17411     17419     17421
     17408     17411     17419     17422     17409     17408     17411     17412
     17409     17408     17411     17413     17409     17408     17411     17419
     17410     17408     17411     17412     17410     17408     17411     17413
     17410     17408     17411     17419     17411     17413     17414     17415
     17411     17413     17414     17416     17411     17419     17422     17423
     17412     17411     17413     17414     17412     17411     17419     17420
     17412     17411     17419     17421     17412     17411     17419     17422
     17413     17411     17419     17420     17413     17411     17419     17421
     17413     17411     17419     17422     17413     17414     17416     17417
     17413     17414     17416     17418     17413     17414     17416     17428
     17414     17413     17411     17419     17414     17416     17428     17429
     17414     17416     17428     17430     17414     17416     17428     17431
     17415     17414     17416     17417     17415     17414     17416     17418
     17415     17414     17416     17428     17416     17428     17431     17432
     17416     17428     17431     17433     17416     17428     17431     17434
     17417     17416     17428     17429     17417     17416     17428     17430
     17417     17416     17428     17431     17418     17416     17428     17429
     17418     17416     17428     17430     17418     17416     17428     17431
     17419     17422     17423     17424     17419     17422     17423     17425
     17420     17419     17422     17423     17421     17419     17422     17423
     17422     17423     17425     17426     17422     17423     17425     17427
     17422     17423     17425     17475     17423     17425     17475     17476
     17423     17425     17475     17477     17423     17425     17475     17478
     17424     17423     17425     17426     17424     17423     17425     17427
     17424     17423     17425     17475     17425     17475     17478     17479
     17425     17475     17478     17480     17425     17475     17478     17481
     17426     17425     17475     17476     17426     17425     17475     17477
     17426     17425     17475     17478     17427     17425     17475     17476
     17427     17425     17475     17477     17427     17425     17475     17478
     17428     17431     17434     17435     17428     17431     17434     17436
     17429     17428     17431     17432     17429     17428     17431     17433
     17429     17428     17431     17434     17430     17428     17431     17432
     17430     17428     17431     17433     17430     17428     17431     17434
     17431     17434     17436     17437     17431     17434     17436     17438
     17432     17431     17434     17435     17432     17431     17434     17436
     17433     17431     17434     17435     17433     17431     17434     17436
     17434     17436     17438     17439     17434     17436     17438     17440
     17434     17436     17438     17441     17435     17434     17436     17437
     17435     17434     17436     17438     17436     17438     17441     17442
     17436     17438     17441     17443     17437     17436     17438     17439
     17437     17436     17438     17440     17437     17436     17438     17441
     17438     17441     17443     17444     17438     17441     17443     17445
     17439     17438     17441     17442     17439     17438     17441     17443
     17440     17438     17441     17442     17440     17438     17441     17443
     17441     17443     17445     17446     17441     17443     17445     17447
     17441     17443     17445     17448     17442     17441     17443     17444
     17442     17441     17443     17445     17443     17445     17448     17449
     17443     17445     17448     17450     17444     17443     17445     17446
     17444     17443     17445     17447     17444     17443     17445     17448
     17445     17448     17450     17451     17445     17448     17450     17452
     17446     17445     17448     17449     17446     17445     17448     17450
     17447     17445     17448     17449     17447     17445     17448     17450
     17448     17450     17452     17453     17448     17450     17452     17454
     17448     17450     17452     17455     17449     17448     17450     17451
     17449     17448     17450     17452     17450     17452     17455     17456
     17450     17452     17455     17457     17451     17450     17452     17453
     17451     17450     17452     17454     17451     17450     17452     17455
     17452     17455     17457     17458     17452     17455     17457     17459
     17453     17452     17455     17456     17453     17452     17455     17457
     17454     17452     17455     17456     17454     17452     17455     17457
     17455     17457     17459     17460     17455     17457     17459     17461
     17455     17457     17459     17462     17456     17455     17457     17458
     17456     17455     17457     17459     17457     17459     17462     17463
     17457     17459     17462     17464     17457     17459     17462     17465
     17458     17457     17459     17460     17458     17457     17459     17461
     17458     17457     17459     17462     17459     17462     17465     17466
     17459     17462     17465     17467     17459     17462     17465     17468
     17460     17459     17462     17463     17460     17459     17462     17464
     17460     17459     17462     17465     17461     17459     17462     17463
     17461     17459     17462     17464     17461     17459     17462     17465
     17462     17465     17468     17469     17462     17465     17468     17470
     17462     17465     17468     17471     17463     17462     17465     17466
     17463     17462     17465     17467     17463     17462     17465     17468
     17464     17462     17465     17466     17464     17462     17465     17467
     17464     17462     17465     17468     17465     17468     17471     17472
     17465     17468     17471     17473     17465     17468     17471     17474
     17466     17465     17468     17469     17466     17465     17468     17470
     17466     17465     17468     17471     17467     17465     17468     17469
     17467     17465     17468     17470     17467     17465     17468     17471
     17469     17468     17471     17472     17469     17468     17471     17473
     17469     17468     17471     17474     17470     17468     17471     17472
     17470     17468     17471     17473     17470     17468     17471     17474
     17475     17478     17481     17482     17475     17478     17481     17483
     17475     17478     17481     17484     17476     17475     17478     17479
     17476     17475     17478     17480     17476     17475     17478     17481
     17477     17475     17478     17479     17477     17475     17478     17480
     17477     17475     17478     17481     17478     17481     17484     17485
     17478     17481     17484     17486     17478     17481     17484     17487
     17479     17478     17481     17482     17479     17478     17481     17483
     17479     17478     17481     17484     17480     17478     17481     17482
     17480     17478     17481     17483     17480     17478     17481     17484
     17481     17484     17487     17488     17481     17484     17487     17489
     17481     17484     17487     17490     17482     17481     17484     17485
     17482     17481     17484     17486     17482     17481     17484     17487
     17483     17481     17484     17485     17483     17481     17484     17486
     17483     17481     17484     17487     17484     17487     17490     17491
     17484     17487     17490     17492     17484     17487     17490     17493
     17485     17484     17487     17488     17485     17484     17487     17489
     17485     17484     17487     17490     17486     17484     17487     17488
     17486     17484     17487     17489     17486     17484     17487     17490
     17487     17490     17493     17494     17487     17490     17493     17495
     17487     17490     17493     17496     17488     17487     17490     17491
     17488     17487     17490     17492     17488     17487     17490     17493
     17489     17487     17490     17491     17489     17487     17490     17492
     17489     17487     17490     17493     17490     17493     17496     17497
     17490     17493     17496     17498     17490     17493     17496     17499
     17491     17490     17493     17494     17491     17490     17493     17495
     17491     17490     17493     17496     17492     17490     17493     17494
     17492     17490     17493     17495     17492     17490     17493     17496
     17493     17496     17499     17500     17493     17496     17499     17501
     17493     17496     17499     17502     17494     17493     17496     17497
     17494     17493     17496     17498     17494     17493     17496     17499
     17495     17493     17496     17497     17495     17493     17496     17498
     17495     17493     17496     17499     17496     17499     17502     17503
     17496     17499     17502     17504     17496     17499     17502     17505
     17497     17496     17499     17500     17497     17496     17499     17501
     17497     17496     17499     17502     17498     17496     17499     17500
     17498     17496     17499     17501     17498     17496     17499     17502
     17499     17502     17505     17506     17499     17502     17505     17507
     17499     17502     17505     17508     17500     17499     17502     17503
     17500     17499     17502     17504     17500     17499     17502     17505
     17501     17499     17502     17503     17501     17499     17502     17504
     17501     17499     17502     17505     17502     17505     17508     17509
     17502     17505     17508     17510     17502     17505     17508     17511
     17503     17502     17505     17506     17503     17502     17505     17507
     17503     17502     17505     17508     17504     17502     17505     17506
     17504     17502     17505     17507     17504     17502     17505     17508
     17505     17508     17511     17512     17505     17508     17511     17513
     17505     17508     17511     17514     17506     17505     17508     17509
     17506     17505     17508     17510     17506     17505     17508     17511
     17507     17505     17508     17509     17507     17505     17508     17510
     17507     17505     17508     17511     17508     17511     17514     17515
     17508     17511     17514     17516     17508     17511     17514     17517
     17509     17508     17511     17512     17509     17508     17511     17513
     17509     17508     17511     17514     17510     17508     17511     17512
     17510     17508     17511     17513     17510     17508     17511     17514
     17511     17514     17517     17518     17511     17514     17517     17519
     17511     17514     17517     17520     17512     17511     17514     17515
     17512     17511     17514     17516     17512     17511     17514     17517
     17513     17511     17514     17515     17513     17511     17514     17516
     17513     17511     17514     17517     17514     17517     17520     17521
     17514     17517     17520     17522     17514     17517     17520     17523
     17515     17514     17517     17518     17515     17514     17517     17519
     17515     17514     17517     17520     17516     17514     17517     17518
     17516     17514     17517     17519     17516     17514     17517     17520
     17518     17517     17520     17521     17518     17517     17520     17522
     17518     17517     17520     17523     17519     17517     17520     17521
     17519     17517     17520     17522     17519     17517     17520     17523
      4511      4515      4518      4519      4511      4515      4518      4549
      4511      4557      4554      4549      4511      4557      4554      4555
      4511      4557      4554      4556      4512      4511      4513      4514
      4512      4511      4515      4516      4512      4511      4515      4517
      4512      4511      4515      4518      4512      4511      4557      4554
      4512      4511      4557      4558      4512      4511      4557      4559
      4513      4511      4515      4516      4513      4511      4515      4517
      4513      4511      4515      4518      4513      4511      4557      4554
      4513      4511      4557      4558      4513      4511      4557      4559
      4514      4513      4511      4515      4514      4513      4511      4557
      4515      4511      4557      4554      4515      4511      4557      4558
      4515      4511      4557      4559      4515      4518      4519      4520
      4515      4518      4519      4521      4515      4518      4549      4547
      4515      4518      4549      4550      4515      4518      4549      4554
      4516      4515      4511      4557      4516      4515      4518      4519
      4516      4515      4518      4549      4517      4515      4511      4557
      4517      4515      4518      4519      4517      4515      4518      4549
      4518      4515      4511      4557      4518      4519      4521      4522
      4518      4519      4521      4523      4518      4519      4521      4524
      4518      4549      4547      4524      4518      4549      4547      4544
      4518      4549      4547      4548      4518      4549      4550      4551
      4518      4549      4550      4552      4518      4549      4550      4553
      4518      4549      4554      4555      4518      4549      4554      4556
      4518      4549      4554      4557      4519      4518      4549      4547
      4519      4518      4549      4550      4519      4518      4549      4554
      4519      4521      4524      4525      4519      4521      4524      4526
      4519      4521      4524      4547      4520      4519      4518      4549
      4520      4519      4521      4522      4520      4519      4521      4523
      4520      4519      4521      4524      4521      4519      4518      4549
      4521      4524      4526      4527      4521      4524      4526      4528
      4521      4524      4526      4536      4521      4524      4547      4544
      4521      4524      4547      4548      4521      4524      4547      4549
      4522      4521      4524      4525      4522      4521      4524      4526
      4522      4521      4524      4547      4523      4521      4524      4525
      4523      4521      4524      4526      4523      4521      4524      4547
      4524      4526      4528      4529      4524      4526      4528      4530
      4524      4526      4528      4531      4524      4526      4536      4534
      4524      4526      4536      4537      4524      4526      4536      4541
      4524      4547      4544      4541      4524      4547      4544      4545
      4524      4547      4544      4546      4524      4547      4549      4550
      4524      4547      4549      4554      4525      4524      4526      4527
      4525      4524      4526      4528      4525      4524      4526      4536
      4525      4524      4547      4544      4525      4524      4547      4548
      4525      4524      4547      4549      4526      4524      4547      4544
      4526      4524      4547      4548      4526      4524      4547      4549
      4526      4528      4531      4532      4526      4528      4531      4533
      4526      4528      4531      4534      4526      4536      4534      4531
      4526      4536      4534      4535      4526      4536      4534      4560
      4526      4536      4537      4538      4526      4536      4537      4539
      4526      4536      4537      4540      4526      4536      4541      4542
      4526      4536      4541      4543      4526      4536      4541      4544
      4527      4526      4524      4547      4527      4526      4528      4529
      4527      4526      4528      4530      4527      4526      4528      4531
      4527      4526      4536      4534      4527      4526      4536      4537
      4527      4526      4536      4541      4528      4526      4524      4547
      4528      4526      4536      4534      4528      4526      4536      4537
      4528      4526      4536      4541      4528      4531      4534      4535
      4528      4531      4534      4536      4528      4531      4534      4560
      4529      4528      4526      4536      4529      4528      4531      4532
      4529      4528      4531      4533      4529      4528      4531      4534
      4530      4528      4526      4536      4530      4528      4531      4532
      4530      4528      4531      4533      4530      4528      4531      4534
      4531      4528      4526      4536      4531      4534      4536      4537
      4531      4534      4536      4541      4531      4534      4560      4561
      4531      4534      4560      4562      4531      4534      4560      4566
      4532      4531      4534      4535      4532      4531      4534      4536
      4532      4531      4534      4560      4533      4531      4534      4535
      4533      4531      4534      4536      4533      4531      4534      4560
      4534      4536      4537      4538      4534      4536      4537      4539
      4534      4536      4537      4540      4534      4536      4541      4542
      4534      4536      4541      4543      4534      4536      4541      4544
      4534      4560      4562      4563      4534      4560      4562      4564
      4534      4560      4562      4565      4534      4560      4566      4567
      4534      4560      4566      4568      4534      4560      4566      4569
      4535      4534      4536      4537      4535      4534      4536      4541
      4535      4534      4560      4561      4535      4534      4560      4562
      4535      4534      4560      4566      4536      4526      4524      4547
      4536      4534      4560      4561      4536      4534      4560      4562
      4536      4534      4560      4566      4536      4541      4544      4545
      4536      4541      4544      4546      4536      4541      4544      4547
      4537      4536      4534      4560      4537      4536      4541      4542
      4537      4536      4541      4543      4537      4536      4541      4544
      4538      4537      4536      4541      4539      4537      4536      4541
      4540      4537      4536      4541      4541      4536      4534      4560
      4541      4544      4547      4548      4541      4544      4547      4549
      4542      4541      4544      4545      4542      4541      4544      4546
      4542      4541      4544      4547      4543      4541      4544      4545
      4543      4541      4544      4546      4543      4541      4544      4547
      4544      4547      4549      4550      4544      4547      4549      4554
      4545      4544      4547      4548      4545      4544      4547      4549
      4546      4544      4547      4548      4546      4544      4547      4549
      4547      4549      4550      4551      4547      4549      4550      4552
      4547      4549      4550      4553      4547      4549      4554      4555
      4547      4549      4554      4556      4547      4549      4554      4557
      4548      4547      4549      4550      4548      4547      4549      4554
      4549      4554      4557      4558      4549      4554      4557      4559
      4550      4549      4554      4555      4550      4549      4554      4556
      4550      4549      4554      4557      4551      4550      4549      4554
      4552      4550      4549      4554      4553      4550      4549      4554
      4555      4554      4557      4558      4555      4554      4557      4559
      4556      4554      4557      4558      4556      4554      4557      4559
      4560      4566      4569      4570      4560      4566      4569      4571
      4560      4566      4569      4572      4561      4560      4562      4563
      4561      4560      4562      4564      4561      4560      4562      4565
      4561      4560      4566      4567      4561      4560      4566      4568
      4561      4560      4566      4569      4562      4560      4566      4567
      4562      4560      4566      4568      4562      4560      4566      4569
      4563      4562      4560      4566      4564      4562      4560      4566
      4565      4562      4560      4566      4566      4569      4572      4573
      4566      4569      4572      4574      4566      4569      4572      4575
      4567      4566      4569      4570      4567      4566      4569      4571
      4567      4566      4569      4572      4568      4566      4569      4570
      4568      4566      4569      4571      4568      4566      4569      4572
      4569      4572      4575      4576      4569      4572      4575      4577
      4569      4572      4575      4581      4570      4569      4572      4573
      4570      4569      4572      4574      4570      4569      4572      4575
      4571      4569      4572      4573      4571      4569      4572      4574
      4571      4569      4572      4575      4572      4575      4577      4578
      4572      4575      4577      4579      4572      4575      4577      4580
      4572      4575      4581      4582      4572      4575      4581      4583
      4572      4575      4581      4584      4573      4572      4575      4576
      4573      4572      4575      4577      4573      4572      4575      4581
      4574      4572      4575      4576      4574      4572      4575      4577
      4574      4572      4575      4581      4576      4575      4577      4578
      4576      4575      4577      4579      4576      4575      4577      4580
      4576      4575      4581      4582      4576      4575      4581      4583
      4576      4575      4581      4584      4577      4575      4581      4582
      4577      4575      4581      4583      4577      4575      4581      4584
      4578      4577      4575      4581      4579      4577      4575      4581
      4580      4577      4575      4581      1065      1069      1071      1072
      1065      1069      1071      1073      1065      1069      1074      1075
      1065      1069      1074      1076      1065      1069      1074      1080
      1066      1065      1069      1070      1066      1065      1069      1071
      1066      1065      1069      1074      1067      1065      1069      1070
      1067      1065      1069      1071      1067      1065      1069      1074
      1068      1065      1069      1070      1068      1065      1069      1071
      1068      1065      1069      1074      1069      1074      1080      1077
      1070      1069      1071      1072      1070      1069      1071      1073
      1070      1069      1074      1075      1070      1069      1074      1076
      1070      1069      1074      1080      1071      1069      1074      1075
      1071      1069      1074      1076      1071      1069      1074      1080
      1072      1071      1069      1074      1073      1071      1069      1074
      1074      1080      1077      1078      1074      1080      1077      1079
      1074      1080      1077      1081      1075      1074      1080      1077
      1076      1074      1080      1077      1077      1081      1082      1083
      1077      1081      1082      1084      1077      1081      1082      1085
      1078      1077      1081      1082      1079      1077      1081      1082
      1080      1077      1081      1082      1081      1082      1085      1086
      1081      1082      1085      1087      1081      1082      1085      1093
      1082      1085      1087      1088      1082      1085      1093      1094
      1082      1085      1093      1095      1082      1085      1093      1096
      1083      1082      1085      1086      1083      1082      1085      1087
      1083      1082      1085      1093      1084      1082      1085      1086
      1084      1082      1085      1087      1084      1082      1085      1093
      1085      1087      1088      1089      1085      1087      1088      1090
      1085      1093      1096      1097      1086      1085      1087      1088
      1086      1085      1093      1094      1086      1085      1093      1095
      1086      1085      1093      1096      1087      1085      1093      1094
      1087      1085      1093      1095      1087      1085      1093      1096
      1087      1088      1090      1091      1087      1088      1090      1092
      1087      1088      1090      1102      1088      1087      1085      1093
      1088      1090      1102      1103      1088      1090      1102      1104
      1088      1090      1102      1105      1089      1088      1090      1091
      1089      1088      1090      1092      1089      1088      1090      1102
      1090      1102      1105      1106      1090      1102      1105      1107
      1090      1102      1105      1108      1091      1090      1102      1103
      1091      1090      1102      1104      1091      1090      1102      1105
      1092      1090      1102      1103      1092      1090      1102      1104
      1092      1090      1102      1105      1093      1096      1097      1098
      1093      1096      1097      1099      1094      1093      1096      1097
      1095      1093      1096      1097      1096      1097      1099      1100
      1096      1097      1099      1101      1096      1097      1099      1149
      1097      1099      1149      1150      1097      1099      1149      1151
      1097      1099      1149      1152      1098      1097      1099      1100
      1098      1097      1099      1101      1098      1097      1099      1149
      1099      1149      1152      1153      1099      1149      1152      1154
      1099      1149      1152      1155      1100      1099      1149      1150
      1100      1099      1149      1151      1100      1099      1149      1152
      1101      1099      1149      1150      1101      1099      1149      1151
      1101      1099      1149      1152      1102      1105      1108      1109
      1102      1105      1108      1110      1103      1102      1105      1106
      1103      1102      1105      1107      1103      1102      1105      1108
      1104      1102      1105      1106      1104      1102      1105      1107
      1104      1102      1105      1108      1105      1108      1110      1111
      1105      1108      1110      1112      1106      1105      1108      1109
      1106      1105      1108      1110      1107      1105      1108      1109
      1107      1105      1108      1110      1108      1110      1112      1113
      1108      1110      1112      1114      1108      1110      1112      1115
      1109      1108      1110      1111      1109      1108      1110      1112
      1110      1112      1115      1116      1110      1112      1115      1117
      1111      1110      1112      1113      1111      1110      1112      1114
      1111      1110      1112      1115      1112      1115      1117      1118
      1112      1115      1117      1119      1113      1112      1115      1116
      1113      1112      1115      1117      1114      1112      1115      1116
      1114      1112      1115      1117      1115      1117      1119      1120
      1115      1117      1119      1121      1115      1117      1119      1122
      1116      1115      1117      1118      1116      1115      1117      1119
      1117      1119      1122      1123      1117      1119      1122      1124
      1118      1117      1119      1120      1118      1117      1119      1121
      1118      1117      1119      1122      1119      1122      1124      1125
      1119      1122      1124      1126      1120      1119      1122      1123
      1120      1119      1122      1124      1121      1119      1122      1123
      1121      1119      1122      1124      1122      1124      1126      1127
      1122      1124      1126      1128      1122      1124      1126      1129
      1123      1122      1124      1125      1123      1122      1124      1126
      1124      1126      1129      1130      1124      1126      1129      1131
      1125      1124      1126      1127      1125      1124      1126      1128
      1125      1124      1126      1129      1126      1129      1131      1132
      1126      1129      1131      1133      1127      1126      1129      1130
      1127      1126      1129      1131      1128      1126      1129      1130
      1128      1126      1129      1131      1129      1131      1133      1134
      1129      1131      1133      1135      1129      1131      1133      1136
      1130      1129      1131      1132      1130      1129      1131      1133
      1131      1133      1136      1137      1131      1133      1136      1138
      1131      1133      1136      1139      1132      1131      1133      1134
      1132      1131      1133      1135      1132      1131      1133      1136
      1133      1136      1139      1140      1133      1136      1139      1141
      1133      1136      1139      1142      1134      1133      1136      1137
      1134      1133      1136      1138      1134      1133      1136      1139
      1135      1133      1136      1137      1135      1133      1136      1138
      1135      1133      1136      1139      1136      1139      1142      1143
      1136      1139      1142      1144      1136      1139      1142      1145
      1137      1136      1139      1140      1137      1136      1139      1141
      1137      1136      1139      1142      1138      1136      1139      1140
      1138      1136      1139      1141      1138      1136      1139      1142
      1139      1142      1145      1146      1139      1142      1145      1147
      1139      1142      1145      1148      1140      1139      1142      1143
      1140      1139      1142      1144      1140      1139      1142      1145
      1141      1139      1142      1143      1141      1139      1142      1144
      1141      1139      1142      1145      1143      1142      1145      1146
      1143      1142      1145      1147      1143      1142      1145      1148
      1144      1142      1145      1146      1144      1142      1145      1147
      1144      1142      1145      1148      1149      1152      1155      1156
      1149      1152      1155      1157      1149      1152      1155      1158
      1150      1149      1152      1153      1150      1149      1152      1154
      1150      1149      1152      1155      1151      1149      1152      1153
      1151      1149      1152      1154      1151      1149      1152      1155
      1152      1155      1158      1159      1152      1155      1158      1160
      1152      1155      1158      1161      1153      1152      1155      1156
      1153      1152      1155      1157      1153      1152      1155      1158
      1154      1152      1155      1156      1154      1152      1155      1157
      1154      1152      1155      1158      1155      1158      1161      1162
      1155      1158      1161      1163      1155      1158      1161      1164
      1156      1155      1158      1159      1156      1155      1158      1160
      1156      1155      1158      1161      1157      1155      1158      1159
      1157      1155      1158      1160      1157      1155      1158      1161
      1158      1161      1164      1165      1158      1161      1164      1166
      1158      1161      1164      1167      1159      1158      1161      1162
      1159      1158      1161      1163      1159      1158      1161      1164
      1160      1158      1161      1162      1160      1158      1161      1163
      1160      1158      1161      1164      1161      1164      1167      1168
      1161      1164      1167      1169      1161      1164      1167      1170
      1162      1161      1164      1165      1162      1161      1164      1166
      1162      1161      1164      1167      1163      1161      1164      1165
      1163      1161      1164      1166      1163      1161      1164      1167
      1164      1167      1170      1171      1164      1167      1170      1172
      1164      1167      1170      1173      1165      1164      1167      1168
      1165      1164      1167      1169      1165      1164      1167      1170
      1166      1164      1167      1168      1166      1164      1167      1169
      1166      1164      1167      1170      1167      1170      1173      1174
      1167      1170      1173      1175      1167      1170      1173      1176
      1168      1167      1170      1171      1168      1167      1170      1172
      1168      1167      1170      1173      1169      1167      1170      1171
      1169      1167      1170      1172      1169      1167      1170      1173
      1170      1173      1176      1177      1170      1173      1176      1178
      1170      1173      1176      1179      1171      1170      1173      1174
      1171      1170      1173      1175      1171      1170      1173      1176
      1172      1170      1173      1174      1172      1170      1173      1175
      1172      1170      1173      1176      1173      1176      1179      1180
      1173      1176      1179      1181      1173      1176      1179      1182
      1174      1173      1176      1177      1174      1173      1176      1178
      1174      1173      1176      1179      1175      1173      1176      1177
      1175      1173      1176      1178      1175      1173      1176      1179
      1176      1179      1182      1183      1176      1179      1182      1184
      1176      1179      1182      1185      1177      1176      1179      1180
      1177      1176      1179      1181      1177      1176      1179      1182
      1178      1176      1179      1180      1178      1176      1179      1181
      1178      1176      1179      1182      1179      1182      1185      1186
      1179      1182      1185      1187      1179      1182      1185      1188
      1180      1179      1182      1183      1180      1179      1182      1184
      1180      1179      1182      1185      1181      1179      1182      1183
      1181      1179      1182      1184      1181      1179      1182      1185
      1182      1185      1188      1189      1182      1185      1188      1190
      1182      1185      1188      1191      1183      1182      1185      1186
      1183      1182      1185      1187      1183      1182      1185      1188
      1184      1182      1185      1186      1184      1182      1185      1187
      1184      1182      1185      1188      1185      1188      1191      1192
      1185      1188      1191      1193      1185      1188      1191      1194
      1186      1185      1188      1189      1186      1185      1188      1190
      1186      1185      1188      1191      1187      1185      1188      1189
      1187      1185      1188      1190      1187      1185      1188      1191
      1188      1191      1194      1195      1188      1191      1194      1196
      1188      1191      1194      1197      1189      1188      1191      1192
      1189      1188      1191      1193      1189      1188      1191      1194
      1190      1188      1191      1192      1190      1188      1191      1193
      1190      1188      1191      1194      1192      1191      1194      1195
      1192      1191      1194      1196      1192      1191      1194      1197
      1193      1191      1194      1195      1193      1191      1194      1196
      1193      1191      1194      1197      4585      4589      4592      4593
      4585      4589      4592      4623      4585      4631      4628      4623
      4585      4631      4628      4629      4585      4631      4628      4630
      4586      4585      4587      4588      4586      4585      4589      4590
      4586      4585      4589      4591      4586      4585      4589      4592
      4586      4585      4631      4628      4586      4585      4631      4632
      4586      4585      4631      4633      4587      4585      4589      4590
      4587      4585      4589      4591      4587      4585      4589      4592
      4587      4585      4631      4628      4587      4585      4631      4632
      4587      4585      4631      4633      4588      4587      4585      4589
      4588      4587      4585      4631      4589      4585      4631      4628
      4589      4585      4631      4632      4589      4585      4631      4633
      4589      4592      4593      4594      4589      4592      4593      4595
      4589      4592      4623      4621      4589      4592      4623      4624
      4589      4592      4623      4628      4590      4589      4585      4631
      4590      4589      4592      4593      4590      4589      4592      4623
      4591      4589      4585      4631      4591      4589      4592      4593
      4591      4589      4592      4623      4592      4589      4585      4631
      4592      4593      4595      4596      4592      4593      4595      4597
      4592      4593      4595      4598      4592      4623      4621      4598
      4592      4623      4621      4618      4592      4623      4621      4622
      4592      4623      4624      4625      4592      4623      4624      4626
      4592      4623      4624      4627      4592      4623      4628      4629
      4592      4623      4628      4630      4592      4623      4628      4631
      4593      4592      4623      4621      4593      4592      4623      4624
      4593      4592      4623      4628      4593      4595      4598      4599
      4593      4595      4598      4600      4593      4595      4598      4621
      4594      4593      4592      4623      4594      4593      4595      4596
      4594      4593      4595      4597      4594      4593      4595      4598
      4595      4593      4592      4623      4595      4598      4600      4601
      4595      4598      4600      4602      4595      4598      4600      4610
      4595      4598      4621      4618      4595      4598      4621      4622
      4595      4598      4621      4623      4596      4595      4598      4599
      4596      4595      4598      4600      4596      4595      4598      4621
      4597      4595      4598      4599      4597      4595      4598      4600
      4597      4595      4598      4621      4598      4600      4602      4603
      4598      4600      4602      4604      4598      4600      4602      4605
      4598      4600      4610      4608      4598      4600      4610      4611
      4598      4600      4610      4615      4598      4621      4618      4615
      4598      4621      4618      4619      4598      4621      4618      4620
      4598      4621      4623      4624      4598      4621      4623      4628
      4599      4598      4600      4601      4599      4598      4600      4602
      4599      4598      4600      4610      4599      4598      4621      4618
      4599      4598      4621      4622      4599      4598      4621      4623
      4600      4598      4621      4618      4600      4598      4621      4622
      4600      4598      4621      4623      4600      4602      4605      4606
      4600      4602      4605      4607      4600      4602      4605      4608
      4600      4610      4608      4605      4600      4610      4608      4609
      4600      4610      4608      4634      4600      4610      4611      4612
      4600      4610      4611      4613      4600      4610      4611      4614
      4600      4610      4615      4616      4600      4610      4615      4617
      4600      4610      4615      4618      4601      4600      4598      4621
      4601      4600      4602      4603      4601      4600      4602      4604
      4601      4600      4602      4605      4601      4600      4610      4608
      4601      4600      4610      4611      4601      4600      4610      4615
      4602      4600      4598      4621      4602      4600      4610      4608
      4602      4600      4610      4611      4602      4600      4610      4615
      4602      4605      4608      4609      4602      4605      4608      4610
      4602      4605      4608      4634      4603      4602      4600      4610
      4603      4602      4605      4606      4603      4602      4605      4607
      4603      4602      4605      4608      4604      4602      4600      4610
      4604      4602      4605      4606      4604      4602      4605      4607
      4604      4602      4605      4608      4605      4602      4600      4610
      4605      4608      4610      4611      4605      4608      4610      4615
      4605      4608      4634      4635      4605      4608      4634      4636
      4605      4608      4634      4640      4606      4605      4608      4609
      4606      4605      4608      4610      4606      4605      4608      4634
      4607      4605      4608      4609      4607      4605      4608      4610
      4607      4605      4608      4634      4608      4610      4611      4612
      4608      4610      4611      4613      4608      4610      4611      4614
      4608      4610      4615      4616      4608      4610      4615      4617
      4608      4610      4615      4618      4608      4634      4636      4637
      4608      4634      4636      4638      4608      4634      4636      4639
      4608      4634      4640      4641      4608      4634      4640      4642
      4608      4634      4640      4643      4609      4608      4610      4611
      4609      4608      4610      4615      4609      4608      4634      4635
      4609      4608      4634      4636      4609      4608      4634      4640
      4610      4600      4598      4621      4610      4608      4634      4635
      4610      4608      4634      4636      4610      4608      4634      4640
      4610      4615      4618      4619      4610      4615      4618      4620
      4610      4615      4618      4621      4611      4610      4608      4634
      4611      4610      4615      4616      4611      4610      4615      4617
      4611      4610      4615      4618      4612      4611      4610      4615
      4613      4611      4610      4615      4614      4611      4610      4615
      4615      4610      4608      4634      4615      4618      4621      4622
      4615      4618      4621      4623      4616      4615      4618      4619
      4616      4615      4618      4620      4616      4615      4618      4621
      4617      4615      4618      4619      4617      4615      4618      4620
      4617      4615      4618      4621      4618      4621      4623      4624
      4618      4621      4623      4628      4619      4618      4621      4622
      4619      4618      4621      4623      4620      4618      4621      4622
      4620      4618      4621      4623      4621      4623      4624      4625
      4621      4623      4624      4626      4621      4623      4624      4627
      4621      4623      4628      4629      4621      4623      4628      4630
      4621      4623      4628      4631      4622      4621      4623      4624
      4622      4621      4623      4628      4623      4628      4631      4632
      4623      4628      4631      4633      4624      4623      4628      4629
      4624      4623      4628      4630      4624      4623      4628      4631
      4625      4624      4623      4628      4626      4624      4623      4628
      4627      4624      4623      4628      4629      4628      4631      4632
      4629      4628      4631      4633      4630      4628      4631      4632
      4630      4628      4631      4633      4634      4640      4643      4644
      4634      4640      4643      4645      4634      4640      4643      4646
      4635      4634      4636      4637      4635      4634      4636      4638
      4635      4634      4636      4639      4635      4634      4640      4641
      4635      4634      4640      4642      4635      4634      4640      4643
      4636      4634      4640      4641      4636      4634      4640      4642
      4636      4634      4640      4643      4637      4636      4634      4640
      4638      4636      4634      4640      4639      4636      4634      4640
      4640      4643      4646      4647      4640      4643      4646      4648
      4640      4643      4646      4649      4641      4640      4643      4644
      4641      4640      4643      4645      4641      4640      4643      4646
      4642      4640      4643      4644      4642      4640      4643      4645
      4642      4640      4643      4646      4643      4646      4649      4650
      4643      4646      4649      4651      4643      4646      4649      4655
      4644      4643      4646      4647      4644      4643      4646      4648
      4644      4643      4646      4649      4645      4643      4646      4647
      4645      4643      4646      4648      4645      4643      4646      4649
      4646      4649      4651      4652      4646      4649      4651      4653
      4646      4649      4651      4654      4646      4649      4655      4656
      4646      4649      4655      4657      4646      4649      4655      4658
      4647      4646      4649      4650      4647      4646      4649      4651
      4647      4646      4649      4655      4648      4646      4649      4650
      4648      4646      4649      4651      4648      4646      4649      4655
      4650      4649      4651      4652      4650      4649      4651      4653
      4650      4649      4651      4654      4650      4649      4655      4656
      4650      4649      4655      4657      4650      4649      4655      4658
      4651      4649      4655      4656      4651      4649      4655      4657
      4651      4649      4655      4658      4652      4651      4649      4655
      4653      4651      4649      4655      4654      4651      4649      4655
     12808     12821     12824     12825     12808     12821     12824     12826
     12808     12821     12824     12831     12809     12808     12813     12814
     12809     12808     12813     12815     12809     12808     12813     12816
     12809     12808     12817     12818     12809     12808     12817     12819
     12809     12808     12817     12820     12809     12808     12821     12822
     12809     12808     12821     12823     12809     12808     12821     12824
     12810     12809     12808     12813     12810     12809     12808     12817
     12810     12809     12808     12821     12811     12809     12808     12813
     12811     12809     12808     12817     12811     12809     12808     12821
     12812     12809     12808     12813     12812     12809     12808     12817
     12812     12809     12808     12821     12813     12808     12817     12818
     12813     12808     12817     12819     12813     12808     12817     12820
     12813     12808     12821     12822     12813     12808     12821     12823
     12813     12808     12821     12824     12814     12813     12808     12817
     12814     12813     12808     12821     12815     12813     12808     12817
     12815     12813     12808     12821     12816     12813     12808     12817
     12816     12813     12808     12821     12817     12808     12821     12822
     12817     12808     12821     12823     12817     12808     12821     12824
     12818     12817     12808     12821     12819     12817     12808     12821
     12820     12817     12808     12821     12821     12824     12831     12827
     12822     12821     12824     12825     12822     12821     12824     12826
     12822     12821     12824     12831     12823     12821     12824     12825
     12823     12821     12824     12826     12823     12821     12824     12831
     12824     12831     12827     12828     12824     12831     12827     12829
     12824     12831     12827     12830     12825     12824     12831     12827
     12826     12824     12831     12827     12827     12830     12832     12833
     12827     12830     12832     12834     12827     12830     12832     12837
     12828     12827     12830     12832     12829     12827     12830     12832
     12830     12832     12837     12835     12830     12832     12837     12838
     12830     12832     12837     12839     12831     12827     12830     12832
     12832     12837     12835     12836     12832     12837     12835     12887
     12832     12837     12839     12840     12832     12837     12839     12841
     12832     12837     12839     12843     12833     12832     12837     12835
     12833     12832     12837     12838     12833     12832     12837     12839
     12834     12832     12837     12835     12834     12832     12837     12838
     12834     12832     12837     12839     12835     12837     12839     12840
     12835     12837     12839     12841     12835     12837     12839     12843
     12835     12887     12889     12890     12835     12887     12889     12891
     12835     12887     12889     12892     12836     12835     12837     12838
     12836     12835     12837     12839     12836     12835     12887     12888
     12836     12835     12887     12889     12837     12835     12887     12888
     12837     12835     12887     12889     12837     12839     12841     12842
     12837     12839     12843     12844     12837     12839     12843     12845
     12838     12837     12835     12887     12838     12837     12839     12840
     12838     12837     12839     12841     12838     12837     12839     12843
     12839     12837     12835     12887     12839     12843     12845     12846
     12839     12843     12845     12847     12840     12839     12841     12842
     12840     12839     12843     12844     12840     12839     12843     12845
     12841     12839     12843     12844     12841     12839     12843     12845
     12842     12841     12839     12843     12843     12845     12847     12848
     12843     12845     12847     12849     12843     12845     12847     12850
     12844     12843     12845     12846     12844     12843     12845     12847
     12845     12847     12850     12851     12845     12847     12850     12852
     12845     12847     12850     12853     12846     12845     12847     12848
     12846     12845     12847     12849     12846     12845     12847     12850
     12847     12850     12853     12854     12847     12850     12853     12855
     12847     12850     12853     12856     12848     12847     12850     12851
     12848     12847     12850     12852     12848     12847     12850     12853
     12849     12847     12850     12851     12849     12847     12850     12852
     12849     12847     12850     12853     12850     12853     12856     12857
     12850     12853     12856     12858     12850     12853     12856     12859
     12851     12850     12853     12854     12851     12850     12853     12855
     12851     12850     12853     12856     12852     12850     12853     12854
     12852     12850     12853     12855     12852     12850     12853     12856
     12853     12856     12859     12860     12853     12856     12859     12861
     12853     12856     12859     12862     12854     12853     12856     12857
     12854     12853     12856     12858     12854     12853     12856     12859
     12855     12853     12856     12857     12855     12853     12856     12858
     12855     12853     12856     12859     12856     12859     12862     12863
     12856     12859     12862     12864     12856     12859     12862     12865
     12857     12856     12859     12860     12857     12856     12859     12861
     12857     12856     12859     12862     12858     12856     12859     12860
     12858     12856     12859     12861     12858     12856     12859     12862
     12859     12862     12865     12866     12859     12862     12865     12867
     12859     12862     12865     12868     12860     12859     12862     12863
     12860     12859     12862     12864     12860     12859     12862     12865
     12861     12859     12862     12863     12861     12859     12862     12864
     12861     12859     12862     12865     12862     12865     12868     12869
     12862     12865     12868     12870     12862     12865     12868     12871
     12863     12862     12865     12866     12863     12862     12865     12867
     12863     12862     12865     12868     12864     12862     12865     12866
     12864     12862     12865     12867     12864     12862     12865     12868
     12865     12868     12871     12872     12865     12868     12871     12873
     12865     12868     12871     12874     12866     12865     12868     12869
     12866     12865     12868     12870     12866     12865     12868     12871
     12867     12865     12868     12869     12867     12865     12868     12870
     12867     12865     12868     12871     12868     12871     12874     12875
     12868     12871     12874     12876     12868     12871     12874     12877
     12869     12868     12871     12872     12869     12868     12871     12873
     12869     12868     12871     12874     12870     12868     12871     12872
     12870     12868     12871     12873     12870     12868     12871     12874
     12871     12874     12877     12878     12871     12874     12877     12879
     12871     12874     12877     12880     12872     12871     12874     12875
     12872     12871     12874     12876     12872     12871     12874     12877
     12873     12871     12874     12875     12873     12871     12874     12876
     12873     12871     12874     12877     12874     12877     12880     12881
     12874     12877     12880     12882     12874     12877     12880     12883
     12875     12874     12877     12878     12875     12874     12877     12879
     12875     12874     12877     12880     12876     12874     12877     12878
     12876     12874     12877     12879     12876     12874     12877     12880
     12877     12880     12883     12884     12877     12880     12883     12885
     12877     12880     12883     12886     12878     12877     12880     12881
     12878     12877     12880     12882     12878     12877     12880     12883
     12879     12877     12880     12881     12879     12877     12880     12882
     12879     12877     12880     12883     12881     12880     12883     12884
     12881     12880     12883     12885     12881     12880     12883     12886
     12882     12880     12883     12884     12882     12880     12883     12885
     12882     12880     12883     12886     12887     12889     12892     12893
     12887     12889     12892     12894     12887     12889     12892     12895
     12888     12887     12889     12890     12888     12887     12889     12891
     12888     12887     12889     12892     12889     12892     12895     12896
     12889     12892     12895     12897     12889     12892     12895     12898
     12890     12889     12892     12893     12890     12889     12892     12894
     12890     12889     12892     12895     12891     12889     12892     12893
     12891     12889     12892     12894     12891     12889     12892     12895
     12892     12895     12898     12899     12892     12895     12898     12900
     12892     12895     12898     12901     12893     12892     12895     12896
     12893     12892     12895     12897     12893     12892     12895     12898
     12894     12892     12895     12896     12894     12892     12895     12897
     12894     12892     12895     12898     12895     12898     12901     12902
     12895     12898     12901     12903     12895     12898     12901     12904
     12896     12895     12898     12899     12896     12895     12898     12900
     12896     12895     12898     12901     12897     12895     12898     12899
     12897     12895     12898     12900     12897     12895     12898     12901
     12898     12901     12904     12905     12898     12901     12904     12906
     12898     12901     12904     12907     12899     12898     12901     12902
     12899     12898     12901     12903     12899     12898     12901     12904
     12900     12898     12901     12902     12900     12898     12901     12903
     12900     12898     12901     12904     12901     12904     12907     12908
     12901     12904     12907     12909     12901     12904     12907     12910
     12902     12901     12904     12905     12902     12901     12904     12906
     12902     12901     12904     12907     12903     12901     12904     12905
     12903     12901     12904     12906     12903     12901     12904     12907
     12904     12907     12910     12911     12904     12907     12910     12912
     12905     12904     12907     12908     12905     12904     12907     12909
     12905     12904     12907     12910     12906     12904     12907     12908
     12906     12904     12907     12909     12906     12904     12907     12910
     12907     12910     12912     12913     12907     12910     12912     12914
     12908     12907     12910     12911     12908     12907     12910     12912
     12909     12907     12910     12911     12909     12907     12910     12912
     12910     12912     12914     12915     12910     12912     12914     12916
     12910     12912     12914     12917     12911     12910     12912     12913
     12911     12910     12912     12914     12912     12914     12917     12918
     12912     12914     12917     12919     12912     12914     12917     12920
     12913     12912     12914     12915     12913     12912     12914     12916
     12913     12912     12914     12917     12914     12917     12920     12921
     12914     12917     12920     12922     12914     12917     12920     12923
     12915     12914     12917     12918     12915     12914     12917     12919
     12915     12914     12917     12920     12916     12914     12917     12918
     12916     12914     12917     12919     12916     12914     12917     12920
     12917     12920     12923     12924     12917     12920     12923     12925
     12917     12920     12923     12926     12918     12917     12920     12921
     12918     12917     12920     12922     12918     12917     12920     12923
     12919     12917     12920     12921     12919     12917     12920     12922
     12919     12917     12920     12923     12920     12923     12926     12927
     12920     12923     12926     12928     12920     12923     12926     12929
     12921     12920     12923     12924     12921     12920     12923     12925
     12921     12920     12923     12926     12922     12920     12923     12924
     12922     12920     12923     12925     12922     12920     12923     12926
     12923     12926     12929     12930     12923     12926     12929     12931
     12923     12926     12929     12932     12924     12923     12926     12927
     12924     12923     12926     12928     12924     12923     12926     12929
     12925     12923     12926     12927     12925     12923     12926     12928
     12925     12923     12926     12929     12926     12929     12932     12933
     12926     12929     12932     12934     12926     12929     12932     12935
     12927     12926     12929     12930     12927     12926     12929     12931
     12927     12926     12929     12932     12928     12926     12929     12930
     12928     12926     12929     12931     12928     12926     12929     12932
     12929     12932     12935     12936     12929     12932     12935     12937
     12929     12932     12935     12938     12930     12929     12932     12933
     12930     12929     12932     12934     12930     12929     12932     12935
     12931     12929     12932     12933     12931     12929     12932     12934
     12931     12929     12932     12935     12933     12932     12935     12936
     12933     12932     12935     12937     12933     12932     12935     12938
     12934     12932     12935     12936     12934     12932     12935     12937
     12934     12932     12935     12938     17524     17528     17531     17532
     17524     17528     17531     17533     17524     17528     17531     17537
     17525     17524     17528     17529     17525     17524     17528     17530
     17525     17524     17528     17531     17526     17524     17528     17529
     17526     17524     17528     17530     17526     17524     17528     17531
     17527     17524     17528     17529     17527     17524     17528     17530
     17527     17524     17528     17531     17528     17531     17537     17534
     17529     17528     17531     17532     17529     17528     17531     17533
     17529     17528     17531     17537     17530     17528     17531     17532
     17530     17528     17531     17533     17530     17528     17531     17537
     17531     17537     17534     17535     17531     17537     17534     17536
     17531     17537     17534     17538     17532     17531     17537     17534
     17533     17531     17537     17534     17534     17538     17539     17540
     17534     17538     17539     17541     17534     17538     17539     17542
     17535     17534     17538     17539     17536     17534     17538     17539
     17537     17534     17538     17539     17538     17539     17542     17543
     17538     17539     17542     17544     17538     17539     17542     17550
     17539     17542     17544     17545     17539     17542     17550     17551
     17539     17542     17550     17552     17539     17542     17550     17553
     17540     17539     17542     17543     17540     17539     17542     17544
     17540     17539     17542     17550     17541     17539     17542     17543
     17541     17539     17542     17544     17541     17539     17542     17550
     17542     17544     17545     17546     17542     17544     17545     17547
     17542     17550     17553     17554     17543     17542     17544     17545
     17543     17542     17550     17551     17543     17542     17550     17552
     17543     17542     17550     17553     17544     17542     17550     17551
     17544     17542     17550     17552     17544     17542     17550     17553
     17544     17545     17547     17548     17544     17545     17547     17549
     17544     17545     17547     17559     17545     17544     17542     17550
     17545     17547     17559     17560     17545     17547     17559     17561
     17545     17547     17559     17562     17546     17545     17547     17548
     17546     17545     17547     17549     17546     17545     17547     17559
     17547     17559     17562     17563     17547     17559     17562     17564
     17547     17559     17562     17565     17548     17547     17559     17560
     17548     17547     17559     17561     17548     17547     17559     17562
     17549     17547     17559     17560     17549     17547     17559     17561
     17549     17547     17559     17562     17550     17553     17554     17555
     17550     17553     17554     17556     17551     17550     17553     17554
     17552     17550     17553     17554     17553     17554     17556     17557
     17553     17554     17556     17558     17553     17554     17556     17606
     17554     17556     17606     17607     17554     17556     17606     17608
     17554     17556     17606     17609     17555     17554     17556     17557
     17555     17554     17556     17558     17555     17554     17556     17606
     17556     17606     17609     17610     17556     17606     17609     17611
     17556     17606     17609     17612     17557     17556     17606     17607
     17557     17556     17606     17608     17557     17556     17606     17609
     17558     17556     17606     17607     17558     17556     17606     17608
     17558     17556     17606     17609     17559     17562     17565     17566
     17559     17562     17565     17567     17560     17559     17562     17563
     17560     17559     17562     17564     17560     17559     17562     17565
     17561     17559     17562     17563     17561     17559     17562     17564
     17561     17559     17562     17565     17562     17565     17567     17568
     17562     17565     17567     17569     17563     17562     17565     17566
     17563     17562     17565     17567     17564     17562     17565     17566
     17564     17562     17565     17567     17565     17567     17569     17570
     17565     17567     17569     17571     17565     17567     17569     17572
     17566     17565     17567     17568     17566     17565     17567     17569
     17567     17569     17572     17573     17567     17569     17572     17574
     17568     17567     17569     17570     17568     17567     17569     17571
     17568     17567     17569     17572     17569     17572     17574     17575
     17569     17572     17574     17576     17570     17569     17572     17573
     17570     17569     17572     17574     17571     17569     17572     17573
     17571     17569     17572     17574     17572     17574     17576     17577
     17572     17574     17576     17578     17572     17574     17576     17579
     17573     17572     17574     17575     17573     17572     17574     17576
     17574     17576     17579     17580     17574     17576     17579     17581
     17575     17574     17576     17577     17575     17574     17576     17578
     17575     17574     17576     17579     17576     17579     17581     17582
     17576     17579     17581     17583     17577     17576     17579     17580
     17577     17576     17579     17581     17578     17576     17579     17580
     17578     17576     17579     17581     17579     17581     17583     17584
     17579     17581     17583     17585     17579     17581     17583     17586
     17580     17579     17581     17582     17580     17579     17581     17583
     17581     17583     17586     17587     17581     17583     17586     17588
     17582     17581     17583     17584     17582     17581     17583     17585
     17582     17581     17583     17586     17583     17586     17588     17589
     17583     17586     17588     17590     17584     17583     17586     17587
     17584     17583     17586     17588     17585     17583     17586     17587
     17585     17583     17586     17588     17586     17588     17590     17591
     17586     17588     17590     17592     17586     17588     17590     17593
     17587     17586     17588     17589     17587     17586     17588     17590
     17588     17590     17593     17594     17588     17590     17593     17595
     17588     17590     17593     17596     17589     17588     17590     17591
     17589     17588     17590     17592     17589     17588     17590     17593
     17590     17593     17596     17597     17590     17593     17596     17598
     17590     17593     17596     17599     17591     17590     17593     17594
     17591     17590     17593     17595     17591     17590     17593     17596
     17592     17590     17593     17594     17592     17590     17593     17595
     17592     17590     17593     17596     17593     17596     17599     17600
     17593     17596     17599     17601     17593     17596     17599     17602
     17594     17593     17596     17597     17594     17593     17596     17598
     17594     17593     17596     17599     17595     17593     17596     17597
     17595     17593     17596     17598     17595     17593     17596     17599
     17596     17599     17602     17603     17596     17599     17602     17604
     17596     17599     17602     17605     17597     17596     17599     17600
     17597     17596     17599     17601     17597     17596     17599     17602
     17598     17596     17599     17600     17598     17596     17599     17601
     17598     17596     17599     17602     17600     17599     17602     17603
     17600     17599     17602     17604     17600     17599     17602     17605
     17601     17599     17602     17603     17601     17599     17602     17604
     17601     17599     17602     17605     17606     17609     17612     17613
     17606     17609     17612     17614     17606     17609     17612     17615
     17607     17606     17609     17610     17607     17606     17609     17611
     17607     17606     17609     17612     17608     17606     17609     17610
     17608     17606     17609     17611     17608     17606     17609     17612
     17609     17612     17615     17616     17609     17612     17615     17617
     17609     17612     17615     17618     17610     17609     17612     17613
     17610     17609     17612     17614     17610     17609     17612     17615
     17611     17609     17612     17613     17611     17609     17612     17614
     17611     17609     17612     17615     17612     17615     17618     17619
     17612     17615     17618     17620     17612     17615     17618     17621
     17613     17612     17615     17616     17613     17612     17615     17617
     17613     17612     17615     17618     17614     17612     17615     17616
     17614     17612     17615     17617     17614     17612     17615     17618
     17615     17618     17621     17622     17615     17618     17621     17623
     17615     17618     17621     17624     17616     17615     17618     17619
     17616     17615     17618     17620     17616     17615     17618     17621
     17617     17615     17618     17619     17617     17615     17618     17620
     17617     17615     17618     17621     17618     17621     17624     17625
     17618     17621     17624     17626     17618     17621     17624     17627
     17619     17618     17621     17622     17619     17618     17621     17623
     17619     17618     17621     17624     17620     17618     17621     17622
     17620     17618     17621     17623     17620     17618     17621     17624
     17621     17624     17627     17628     17621     17624     17627     17629
     17621     17624     17627     17630     17622     17621     17624     17625
     17622     17621     17624     17626     17622     17621     17624     17627
     17623     17621     17624     17625     17623     17621     17624     17626
     17623     17621     17624     17627     17624     17627     17630     17631
     17624     17627     17630     17632     17624     17627     17630     17633
     17625     17624     17627     17628     17625     17624     17627     17629
     17625     17624     17627     17630     17626     17624     17627     17628
     17626     17624     17627     17629     17626     17624     17627     17630
     17627     17630     17633     17634     17627     17630     17633     17635
     17627     17630     17633     17636     17628     17627     17630     17631
     17628     17627     17630     17632     17628     17627     17630     17633
     17629     17627     17630     17631     17629     17627     17630     17632
     17629     17627     17630     17633     17630     17633     17636     17637
     17630     17633     17636     17638     17630     17633     17636     17639
     17631     17630     17633     17634     17631     17630     17633     17635
     17631     17630     17633     17636     17632     17630     17633     17634
     17632     17630     17633     17635     17632     17630     17633     17636
     17633     17636     17639     17640     17633     17636     17639     17641
     17633     17636     17639     17642     17634     17633     17636     17637
     17634     17633     17636     17638     17634     17633     17636     17639
     17635     17633     17636     17637     17635     17633     17636     17638
     17635     17633     17636     17639     17636     17639     17642     17643
     17636     17639     17642     17644     17636     17639     17642     17645
     17637     17636     17639     17640     17637     17636     17639     17641
     17637     17636     17639     17642     17638     17636     17639     17640
     17638     17636     17639     17641     17638     17636     17639     17642
     17639     17642     17645     17646     17639     17642     17645     17647
     17639     17642     17645     17648     17640     17639     17642     17643
     17640     17639     17642     17644     17640     17639     17642     17645
     17641     17639     17642     17643     17641     17639     17642     17644
     17641     17639     17642     17645     17642     17645     17648     17649
     17642     17645     17648     17650     17642     17645     17648     17651
     17643     17642     17645     17646     17643     17642     17645     17647
     17643     17642     17645     17648     17644     17642     17645     17646
     17644     17642     17645     17647     17644     17642     17645     17648
     17645     17648     17651     17652     17645     17648     17651     17653
     17645     17648     17651     17654     17646     17645     17648     17649
     17646     17645     17648     17650     17646     17645     17648     17651
     17647     17645     17648     17649     17647     17645     17648     17650
     17647     17645     17648     17651     17649     17648     17651     17652
     17649     17648     17651     17653     17649     17648     17651     17654
     17650     17648     17651     17652     17650     17648     17651     17653
     17650     17648     17651     17654      7460      7464      7467      7468
      7460      7464      7467      7469      7460      7464      7467      7473
      7461      7460      7464      7465      7461      7460      7464      7466
      7461      7460      7464      7467      7462      7460      7464      7465
      7462      7460      7464      7466      7462      7460      7464      7467
      7463      7460      7464      7465      7463      7460      7464      7466
      7463      7460      7464      7467      7464      7467      7473      7470
      7465      7464      7467      7468      7465      7464      7467      7469
      7465      7464      7467      7473      7466      7464      7467      7468
      7466      7464      7467      7469      7466      7464      7467      7473
      7467      7473      7470      7471      7467      7473      7470      7472
      7467      7473      7470      7474      7468      7467      7473      7470
      7469      7467      7473      7470      7470      7474      7475      7476
      7470      7474      7475      7477      7470      7474      7475      7478
      7471      7470      7474      7475      7472      7470      7474      7475
      7473      7470      7474      7475      7474      7475      7478      7479
      7474      7475      7478      7480      7474      7475      7478      7486
      7475      7478      7480      7481      7475      7478      7486      7487
      7475      7478      7486      7488      7475      7478      7486      7489
      7476      7475      7478      7479      7476      7475      7478      7480
      7476      7475      7478      7486      7477      7475      7478      7479
      7477      7475      7478      7480      7477      7475      7478      7486
      7478      7480      7481      7482      7478      7480      7481      7483
      7478      7486      7489      7490      7479      7478      7480      7481
      7479      7478      7486      7487      7479      7478      7486      7488
      7479      7478      7486      7489      7480      7478      7486      7487
      7480      7478      7486      7488      7480      7478      7486      7489
      7480      7481      7483      7484      7480      7481      7483      7485
      7480      7481      7483      7495      7481      7480      7478      7486
      7481      7483      7495      7496      7481      7483      7495      7497
      7481      7483      7495      7498      7482      7481      7483      7484
      7482      7481      7483      7485      7482      7481      7483      7495
      7483      7495      7498      7499      7483      7495      7498      7500
      7483      7495      7498      7501      7484      7483      7495      7496
      7484      7483      7495      7497      7484      7483      7495      7498
      7485      7483      7495      7496      7485      7483      7495      7497
      7485      7483      7495      7498      7486      7489      7490      7491
      7486      7489      7490      7492      7487      7486      7489      7490
      7488      7486      7489      7490      7489      7490      7492      7493
      7489      7490      7492      7494      7489      7490      7492      7542
      7490      7492      7542      7543      7490      7492      7542      7544
      7490      7492      7542      7545      7491      7490      7492      7493
      7491      7490      7492      7494      7491      7490      7492      7542
      7492      7542      7545      7546      7492      7542      7545      7547
      7492      7542      7545      7548      7493      7492      7542      7543
      7493      7492      7542      7544      7493      7492      7542      7545
      7494      7492      7542      7543      7494      7492      7542      7544
      7494      7492      7542      7545      7495      7498      7501      7502
      7495      7498      7501      7503      7495      7498      7501      7504
      7496      7495      7498      7499      7496      7495      7498      7500
      7496      7495      7498      7501      7497      7495      7498      7499
      7497      7495      7498      7500      7497      7495      7498      7501
      7498      7501      7504      7505      7498      7501      7504      7506
      7498      7501      7504      7507      7499      7498      7501      7502
      7499      7498      7501      7503      7499      7498      7501      7504
      7500      7498      7501      7502      7500      7498      7501      7503
      7500      7498      7501      7504      7501      7504      7507      7508
      7501      7504      7507      7509      7501      7504      7507      7510
      7502      7501      7504      7505      7502      7501      7504      7506
      7502      7501      7504      7507      7503      7501      7504      7505
      7503      7501      7504      7506      7503      7501      7504      7507
      7504      7507      7510      7511      7504      7507      7510      7512
      7504      7507      7510      7513      7505      7504      7507      7508
      7505      7504      7507      7509      7505      7504      7507      7510
      7506      7504      7507      7508      7506      7504      7507      7509
      7506      7504      7507      7510      7507      7510      7513      7514
      7507      7510      7513      7515      7508      7507      7510      7511
      7508      7507      7510      7512      7508      7507      7510      7513
      7509      7507      7510      7511      7509      7507      7510      7512
      7509      7507      7510      7513      7510      7513      7515      7516
      7510      7513      7515      7517      7511      7510      7513      7514
      7511      7510      7513      7515      7512      7510      7513      7514
      7512      7510      7513      7515      7513      7515      7517      7518
      7513      7515      7517      7519      7513      7515      7517      7520
      7514      7513      7515      7516      7514      7513      7515      7517
      7515      7517      7520      7521      7515      7517      7520      7522
      7515      7517      7520      7523      7516      7515      7517      7518
      7516      7515      7517      7519      7516      7515      7517      7520
      7517      7520      7523      7524      7517      7520      7523      7525
      7517      7520      7523      7526      7518      7517      7520      7521
      7518      7517      7520      7522      7518      7517      7520      7523
      7519      7517      7520      7521      7519      7517      7520      7522
      7519      7517      7520      7523      7520      7523      7526      7527
      7520      7523      7526      7528      7520      7523      7526      7529
      7521      7520      7523      7524      7521      7520      7523      7525
      7521      7520      7523      7526      7522      7520      7523      7524
      7522      7520      7523      7525      7522      7520      7523      7526
      7523      7526      7529      7530      7523      7526      7529      7531
      7523      7526      7529      7532      7524      7523      7526      7527
      7524      7523      7526      7528      7524      7523      7526      7529
      7525      7523      7526      7527      7525      7523      7526      7528
      7525      7523      7526      7529      7526      7529      7532      7533
      7526      7529      7532      7534      7526      7529      7532      7535
      7527      7526      7529      7530      7527      7526      7529      7531
      7527      7526      7529      7532      7528      7526      7529      7530
      7528      7526      7529      7531      7528      7526      7529      7532
      7529      7532      7535      7536      7529      7532      7535      7537
      7529      7532      7535      7538      7530      7529      7532      7533
      7530      7529      7532      7534      7530      7529      7532      7535
      7531      7529      7532      7533      7531      7529      7532      7534
      7531      7529      7532      7535      7532      7535      7538      7539
      7532      7535      7538      7540      7532      7535      7538      7541
      7533      7532      7535      7536      7533      7532      7535      7537
      7533      7532      7535      7538      7534      7532      7535      7536
      7534      7532      7535      7537      7534      7532      7535      7538
      7536      7535      7538      7539      7536      7535      7538      7540
      7536      7535      7538      7541      7537      7535      7538      7539
      7537      7535      7538      7540      7537      7535      7538      7541
      7542      7545      7548      7549      7542      7545      7548      7550
      7542      7545      7548      7551      7543      7542      7545      7546
      7543      7542      7545      7547      7543      7542      7545      7548
      7544      7542      7545      7546      7544      7542      7545      7547
      7544      7542      7545      7548      7545      7548      7551      7552
      7545      7548      7551      7553      7545      7548      7551      7554
      7546      7545      7548      7549      7546      7545      7548      7550
      7546      7545      7548      7551      7547      7545      7548      7549
      7547      7545      7548      7550      7547      7545      7548      7551
      7548      7551      7554      7555      7548      7551      7554      7556
      7548      7551      7554      7557      7549      7548      7551      7552
      7549      7548      7551      7553      7549      7548      7551      7554
      7550      7548      7551      7552      7550      7548      7551      7553
      7550      7548      7551      7554      7551      7554      7557      7558
      7551      7554      7557      7559      7551      7554      7557      7560
      7552      7551      7554      7555      7552      7551      7554      7556
      7552      7551      7554      7557      7553      7551      7554      7555
      7553      7551      7554      7556      7553      7551      7554      7557
      7554      7557      7560      7561      7554      7557      7560      7562
      7554      7557      7560      7563      7555      7554      7557      7558
      7555      7554      7557      7559      7555      7554      7557      7560
      7556      7554      7557      7558      7556      7554      7557      7559
      7556      7554      7557      7560      7557      7560      7563      7564
      7557      7560      7563      7565      7557      7560      7563      7566
      7558      7557      7560      7561      7558      7557      7560      7562
      7558      7557      7560      7563      7559      7557      7560      7561
      7559      7557      7560      7562      7559      7557      7560      7563
      7560      7563      7566      7567      7560      7563      7566      7568
      7560      7563      7566      7569      7561      7560      7563      7564
      7561      7560      7563      7565      7561      7560      7563      7566
      7562      7560      7563      7564      7562      7560      7563      7565
      7562      7560      7563      7566      7563      7566      7569      7570
      7563      7566      7569      7571      7563      7566      7569      7572
      7564      7563      7566      7567      7564      7563      7566      7568
      7564      7563      7566      7569      7565      7563      7566      7567
      7565      7563      7566      7568      7565      7563      7566      7569
      7566      7569      7572      7573      7566      7569      7572      7574
      7566      7569      7572      7575      7567      7566      7569      7570
      7567      7566      7569      7571      7567      7566      7569      7572
      7568      7566      7569      7570      7568      7566      7569      7571
      7568      7566      7569      7572      7569      7572      7575      7576
      7569      7572      7575      7577      7569      7572      7575      7578
      7570      7569      7572      7573      7570      7569      7572      7574
      7570      7569      7572      7575      7571      7569      7572      7573
      7571      7569      7572      7574      7571      7569      7572      7575
      7572      7575      7578      7579      7572      7575      7578      7580
      7572      7575      7578      7581      7573      7572      7575      7576
      7573      7572      7575      7577      7573      7572      7575      7578
      7574      7572      7575      7576      7574      7572      7575      7577
      7574      7572      7575      7578      7575      7578      7581      7582
      7575      7578      7581      7583      7575      7578      7581      7584
      7576      7575      7578      7579      7576      7575      7578      7580
      7576      7575      7578      7581      7577      7575      7578      7579
      7577      7575      7578      7580      7577      7575      7578      7581
      7578      7581      7584      7585      7578      7581      7584      7586
      7578      7581      7584      7587      7579      7578      7581      7582
      7579      7578      7581      7583      7579      7578      7581      7584
      7580      7578      7581      7582      7580      7578      7581      7583
      7580      7578      7581      7584      7581      7584      7587      7588
      7581      7584      7587      7589      7581      7584      7587      7590
      7582      7581      7584      7585      7582      7581      7584      7586
      7582      7581      7584      7587      7583      7581      7584      7585
      7583      7581      7584      7586      7583      7581      7584      7587
      7585      7584      7587      7588      7585      7584      7587      7589
      7585      7584      7587      7590      7586      7584      7587      7588
      7586      7584      7587      7589      7586      7584      7587      7590
      8797      8798      8813      8814      8797      8798      8813      8815
      8797      8798      8813      8819      8798      8797      8801      8802
      8798      8797      8801      8803      8798      8797      8801      8804
      8798      8797      8805      8806      8798      8797      8805      8807
      8798      8797      8805      8808      8798      8797      8809      8810
      8798      8797      8809      8811      8798      8797      8809      8812
      8798      8813      8819      8816      8799      8798      8797      8801
      8799      8798      8797      8805      8799      8798      8797      8809
      8799      8798      8813      8814      8799      8798      8813      8815
      8799      8798      8813      8819      8800      8798      8797      8801
      8800      8798      8797      8805      8800      8798      8797      8809
      8800      8798      8813      8814      8800      8798      8813      8815
      8800      8798      8813      8819      8801      8797      8798      8813
      8801      8797      8805      8806      8801      8797      8805      8807
      8801      8797      8805      8808      8801      8797      8809      8810
      8801      8797      8809      8811      8801      8797      8809      8812
      8802      8801      8797      8805      8802      8801      8797      8809
      8803      8801      8797      8805      8803      8801      8797      8809
      8804      8801      8797      8805      8804      8801      8797      8809
      8805      8797      8798      8813      8805      8797      8809      8810
      8805      8797      8809      8811      8805      8797      8809      8812
      8806      8805      8797      8809      8807      8805      8797      8809
      8808      8805      8797      8809      8809      8797      8798      8813
      8813      8819      8816      8817      8813      8819      8816      8818
      8813      8819      8816      8820      8814      8813      8819      8816
      8815      8813      8819      8816      8816      8820      8821      8822
      8816      8820      8821      8823      8816      8820      8821      8824
      8817      8816      8820      8821      8818      8816      8820      8821
      8819      8816      8820      8821      8820      8821      8824      8825
      8820      8821      8824      8826      8820      8821      8824      8832
      8821      8824      8826      8827      8821      8824      8832      8833
      8821      8824      8832      8834      8821      8824      8832      8835
      8822      8821      8824      8825      8822      8821      8824      8826
      8822      8821      8824      8832      8823      8821      8824      8825
      8823      8821      8824      8826      8823      8821      8824      8832
      8824      8826      8827      8828      8824      8826      8827      8829
      8824      8832      8835      8836      8825      8824      8826      8827
      8825      8824      8832      8833      8825      8824      8832      8834
      8825      8824      8832      8835      8826      8824      8832      8833
      8826      8824      8832      8834      8826      8824      8832      8835
      8826      8827      8829      8830      8826      8827      8829      8831
      8826      8827      8829      8841      8827      8826      8824      8832
      8827      8829      8841      8842      8827      8829      8841      8843
      8827      8829      8841      8844      8828      8827      8829      8830
      8828      8827      8829      8831      8828      8827      8829      8841
      8829      8841      8844      8845      8829      8841      8844      8846
      8829      8841      8844      8847      8830      8829      8841      8842
      8830      8829      8841      8843      8830      8829      8841      8844
      8831      8829      8841      8842      8831      8829      8841      8843
      8831      8829      8841      8844      8832      8835      8836      8837
      8832      8835      8836      8838      8833      8832      8835      8836
      8834      8832      8835      8836      8835      8836      8838      8839
      8835      8836      8838      8840      8835      8836      8838      8888
      8836      8838      8888      8889      8836      8838      8888      8890
      8836      8838      8888      8891      8837      8836      8838      8839
      8837      8836      8838      8840      8837      8836      8838      8888
      8838      8888      8891      8892      8838      8888      8891      8893
      8838      8888      8891      8894      8839      8838      8888      8889
      8839      8838      8888      8890      8839      8838      8888      8891
      8840      8838      8888      8889      8840      8838      8888      8890
      8840      8838      8888      8891      8841      8844      8847      8848
      8841      8844      8847      8849      8842      8841      8844      8845
      8842      8841      8844      8846      8842      8841      8844      8847
      8843      8841      8844      8845      8843      8841      8844      8846
      8843      8841      8844      8847      8844      8847      8849      8850
      8844      8847      8849      8851      8845      8844      8847      8848
      8845      8844      8847      8849      8846      8844      8847      8848
      8846      8844      8847      8849      8847      8849      8851      8852
      8847      8849      8851      8853      8847      8849      8851      8854
      8848      8847      8849      8850      8848      8847      8849      8851
      8849      8851      8854      8855      8849      8851      8854      8856
      8850      8849      8851      8852      8850      8849      8851      8853
      8850      8849      8851      8854      8851      8854      8856      8857
      8851      8854      8856      8858      8852      8851      8854      8855
      8852      8851      8854      8856      8853      8851      8854      8855
      8853      8851      8854      8856      8854      8856      8858      8859
      8854      8856      8858      8860      8854      8856      8858      8861
      8855      8854      8856      8857      8855      8854      8856      8858
      8856      8858      8861      8862      8856      8858      8861      8863
      8857      8856      8858      8859      8857      8856      8858      8860
      8857      8856      8858      8861      8858      8861      8863      8864
      8858      8861      8863      8865      8859      8858      8861      8862
      8859      8858      8861      8863      8860      8858      8861      8862
      8860      8858      8861      8863      8861      8863      8865      8866
      8861      8863      8865      8867      8861      8863      8865      8868
      8862      8861      8863      8864      8862      8861      8863      8865
      8863      8865      8868      8869      8863      8865      8868      8870
      8864      8863      8865      8866      8864      8863      8865      8867
      8864      8863      8865      8868      8865      8868      8870      8871
      8865      8868      8870      8872      8866      8865      8868      8869
      8866      8865      8868      8870      8867      8865      8868      8869
      8867      8865      8868      8870      8868      8870      8872      8873
      8868      8870      8872      8874      8868      8870      8872      8875
      8869      8868      8870      8871      8869      8868      8870      8872
      8870      8872      8875      8876      8870      8872      8875      8877
      8870      8872      8875      8878      8871      8870      8872      8873
      8871      8870      8872      8874      8871      8870      8872      8875
      8872      8875      8878      8879      8872      8875      8878      8880
      8872      8875      8878      8881      8873      8872      8875      8876
      8873      8872      8875      8877      8873      8872      8875      8878
      8874      8872      8875      8876      8874      8872      8875      8877
      8874      8872      8875      8878      8875      8878      8881      8882
      8875      8878      8881      8883      8875      8878      8881      8884
      8876      8875      8878      8879      8876      8875      8878      8880
      8876      8875      8878      8881      8877      8875      8878      8879
      8877      8875      8878      8880      8877      8875      8878      8881
      8878      8881      8884      8885      8878      8881      8884      8886
      8878      8881      8884      8887      8879      8878      8881      8882
      8879      8878      8881      8883      8879      8878      8881      8884
      8880      8878      8881      8882      8880      8878      8881      8883
      8880      8878      8881      8884      8882      8881      8884      8885
      8882      8881      8884      8886      8882      8881      8884      8887
      8883      8881      8884      8885      8883      8881      8884      8886
      8883      8881      8884      8887      8888      8891      8894      8895
      8888      8891      8894      8896      8888      8891      8894      8897
      8889      8888      8891      8892      8889      8888      8891      8893
      8889      8888      8891      8894      8890      8888      8891      8892
      8890      8888      8891      8893      8890      8888      8891      8894
      8891      8894      8897      8898      8891      8894      8897      8899
      8891      8894      8897      8900      8892      8891      8894      8895
      8892      8891      8894      8896      8892      8891      8894      8897
      8893      8891      8894      8895      8893      8891      8894      8896
      8893      8891      8894      8897      8894      8897      8900      8901
      8894      8897      8900      8902      8894      8897      8900      8903
      8895      8894      8897      8898      8895      8894      8897      8899
      8895      8894      8897      8900      8896      8894      8897      8898
      8896      8894      8897      8899      8896      8894      8897      8900
      8897      8900      8903      8904      8897      8900      8903      8905
      8897      8900      8903      8906      8898      8897      8900      8901
      8898      8897      8900      8902      8898      8897      8900      8903
      8899      8897      8900      8901      8899      8897      8900      8902
      8899      8897      8900      8903      8900      8903      8906      8907
      8900      8903      8906      8908      8900      8903      8906      8909
      8901      8900      8903      8904      8901      8900      8903      8905
      8901      8900      8903      8906      8902      8900      8903      8904
      8902      8900      8903      8905      8902      8900      8903      8906
      8903      8906      8909      8910      8903      8906      8909      8911
      8903      8906      8909      8912      8904      8903      8906      8907
      8904      8903      8906      8908      8904      8903      8906      8909
      8905      8903      8906      8907      8905      8903      8906      8908
      8905      8903      8906      8909      8906      8909      8912      8913
      8906      8909      8912      8914      8906      8909      8912      8915
      8907      8906      8909      8910      8907      8906      8909      8911
      8907      8906      8909      8912      8908      8906      8909      8910
      8908      8906      8909      8911      8908      8906      8909      8912
      8909      8912      8915      8916      8909      8912      8915      8917
      8909      8912      8915      8918      8910      8909      8912      8913
      8910      8909      8912      8914      8910      8909      8912      8915
      8911      8909      8912      8913      8911      8909      8912      8914
      8911      8909      8912      8915      8912      8915      8918      8919
      8912      8915      8918      8920      8912      8915      8918      8921
      8913      8912      8915      8916      8913      8912      8915      8917
      8913      8912      8915      8918      8914      8912      8915      8916
      8914      8912      8915      8917      8914      8912      8915      8918
      8915      8918      8921      8922      8915      8918      8921      8923
      8915      8918      8921      8924      8916      8915      8918      8919
      8916      8915      8918      8920      8916      8915      8918      8921
      8917      8915      8918      8919      8917      8915      8918      8920
      8917      8915      8918      8921      8918      8921      8924      8925
      8918      8921      8924      8926      8918      8921      8924      8927
      8919      8918      8921      8922      8919      8918      8921      8923
      8919      8918      8921      8924      8920      8918      8921      8922
      8920      8918      8921      8923      8920      8918      8921      8924
      8921      8924      8927      8928      8921      8924      8927      8929
      8921      8924      8927      8930      8922      8921      8924      8925
      8922      8921      8924      8926      8922      8921      8924      8927
      8923      8921      8924      8925      8923      8921      8924      8926
      8923      8921      8924      8927      8924      8927      8930      8931
      8924      8927      8930      8932      8924      8927      8930      8933
      8925      8924      8927      8928      8925      8924      8927      8929
      8925      8924      8927      8930      8926      8924      8927      8928
      8926      8924      8927      8929      8926      8924      8927      8930
      8927      8930      8933      8934      8927      8930      8933      8935
      8927      8930      8933      8936      8928      8927      8930      8931
      8928      8927      8930      8932      8928      8927      8930      8933
      8929      8927      8930      8931      8929      8927      8930      8932
      8929      8927      8930      8933      8931      8930      8933      8934
      8931      8930      8933      8935      8931      8930      8933      8936
      8932      8930      8933      8934      8932      8930      8933      8935
      8932      8930      8933      8936      4659      4663      4666      4667
      4659      4663      4666      4697      4659      4705      4702      4697
      4659      4705      4702      4703      4659      4705      4702      4704
      4660      4659      4661      4662      4660      4659      4663      4664
      4660      4659      4663      4665      4660      4659      4663      4666
      4660      4659      4705      4702      4660      4659      4705      4706
      4660      4659      4705      4707      4661      4659      4663      4664
      4661      4659      4663      4665      4661      4659      4663      4666
      4661      4659      4705      4702      4661      4659      4705      4706
      4661      4659      4705      4707      4662      4661      4659      4663
      4662      4661      4659      4705      4663      4659      4705      4702
      4663      4659      4705      4706      4663      4659      4705      4707
      4663      4666      4667      4668      4663      4666      4667      4669
      4663      4666      4697      4695      4663      4666      4697      4698
      4663      4666      4697      4702      4664      4663      4659      4705
      4664      4663      4666      4667      4664      4663      4666      4697
      4665      4663      4659      4705      4665      4663      4666      4667
      4665      4663      4666      4697      4666      4663      4659      4705
      4666      4667      4669      4670      4666      4667      4669      4671
      4666      4667      4669      4672      4666      4697      4695      4672
      4666      4697      4695      4692      4666      4697      4695      4696
      4666      4697      4698      4699      4666      4697      4698      4700
      4666      4697      4698      4701      4666      4697      4702      4703
      4666      4697      4702      4704      4666      4697      4702      4705
      4667      4666      4697      4695      4667      4666      4697      4698
      4667      4666      4697      4702      4667      4669      4672      4673
      4667      4669      4672      4674      4667      4669      4672      4695
      4668      4667      4666      4697      4668      4667      4669      4670
      4668      4667      4669      4671      4668      4667      4669      4672
      4669      4667      4666      4697      4669      4672      4674      4675
      4669      4672      4674      4676      4669      4672      4674      4684
      4669      4672      4695      4692      4669      4672      4695      4696
      4669      4672      4695      4697      4670      4669      4672      4673
      4670      4669      4672      4674      4670      4669      4672      4695
      4671      4669      4672      4673      4671      4669      4672      4674
      4671      4669      4672      4695      4672      4674      4676      4677
      4672      4674      4676      4678      4672      4674      4676      4679
      4672      4674      4684      4682      4672      4674      4684      4685
      4672      4674      4684      4689      4672      4695      4692      4689
      4672      4695      4692      4693      4672      4695      4692      4694
      4672      4695      4697      4698      4672      4695      4697      4702
      4673      4672      4674      4675      4673      4672      4674      4676
      4673      4672      4674      4684      4673      4672      4695      4692
      4673      4672      4695      4696      4673      4672      4695      4697
      4674      4672      4695      4692      4674      4672      4695      4696
      4674      4672      4695      4697      4674      4676      4679      4680
      4674      4676      4679      4681      4674      4676      4679      4682
      4674      4684      4682      4679      4674      4684      4682      4683
      4674      4684      4682      4708      4674      4684      4685      4686
      4674      4684      4685      4687      4674      4684      4685      4688
      4674      4684      4689      4690      4674      4684      4689      4691
      4674      4684      4689      4692      4675      4674      4672      4695
      4675      4674      4676      4677      4675      4674      4676      4678
      4675      4674      4676      4679      4675      4674      4684      4682
      4675      4674      4684      4685      4675      4674      4684      4689
      4676      4674      4672      4695      4676      4674      4684      4682
      4676      4674      4684      4685      4676      4674      4684      4689
      4676      4679      4682      4683      4676      4679      4682      4684
      4676      4679      4682      4708      4677      4676      4674      4684
      4677      4676      4679      4680      4677      4676      4679      4681
      4677      4676      4679      4682      4678      4676      4674      4684
      4678      4676      4679      4680      4678      4676      4679      4681
      4678      4676      4679      4682      4679      4676      4674      4684
      4679      4682      4684      4685      4679      4682      4684      4689
      4679      4682      4708      4709      4679      4682      4708      4710
      4679      4682      4708      4714      4680      4679      4682      4683
      4680      4679      4682      4684      4680      4679      4682      4708
      4681      4679      4682      4683      4681      4679      4682      4684
      4681      4679      4682      4708      4682      4684      4685      4686
      4682      4684      4685      4687      4682      4684      4685      4688
      4682      4684      4689      4690      4682      4684      4689      4691
      4682      4684      4689      4692      4682      4708      4710      4711
      4682      4708      4710      4712      4682      4708      4710      4713
      4682      4708      4714      4715      4682      4708      4714      4716
      4682      4708      4714      4717      4683      4682      4684      4685
      4683      4682      4684      4689      4683      4682      4708      4709
      4683      4682      4708      4710      4683      4682      4708      4714
      4684      4674      4672      4695      4684      4682      4708      4709
      4684      4682      4708      4710      4684      4682      4708      4714
      4684      4689      4692      4693      4684      4689      4692      4694
      4684      4689      4692      4695      4685      4684      4682      4708
      4685      4684      4689      4690      4685      4684      4689      4691
      4685      4684      4689      4692      4686      4685      4684      4689
      4687      4685      4684      4689      4688      4685      4684      4689
      4689      4684      4682      4708      4689      4692      4695      4696
      4689      4692      4695      4697      4690      4689      4692      4693
      4690      4689      4692      4694      4690      4689      4692      4695
      4691      4689      4692      4693      4691      4689      4692      4694
      4691      4689      4692      4695      4692      4695      4697      4698
      4692      4695      4697      4702      4693      4692      4695      4696
      4693      4692      4695      4697      4694      4692      4695      4696
      4694      4692      4695      4697      4695      4697      4698      4699
      4695      4697      4698      4700      4695      4697      4698      4701
      4695      4697      4702      4703      4695      4697      4702      4704
      4695      4697      4702      4705      4696      4695      4697      4698
      4696      4695      4697      4702      4697      4702      4705      4706
      4697      4702      4705      4707      4698      4697      4702      4703
      4698      4697      4702      4704      4698      4697      4702      4705
      4699      4698      4697      4702      4700      4698      4697      4702
      4701      4698      4697      4702      4703      4702      4705      4706
      4703      4702      4705      4707      4704      4702      4705      4706
      4704      4702      4705      4707      4708      4714      4717      4718
      4708      4714      4717      4719      4708      4714      4717      4720
      4709      4708      4710      4711      4709      4708      4710      4712
      4709      4708      4710      4713      4709      4708      4714      4715
      4709      4708      4714      4716      4709      4708      4714      4717
      4710      4708      4714      4715      4710      4708      4714      4716
      4710      4708      4714      4717      4711      4710      4708      4714
      4712      4710      4708      4714      4713      4710      4708      4714
      4714      4717      4720      4721      4714      4717      4720      4722
      4714      4717      4720      4723      4715      4714      4717      4718
      4715      4714      4717      4719      4715      4714      4717      4720
      4716      4714      4717      4718      4716      4714      4717      4719
      4716      4714      4717      4720      4717      4720      4723      4724
      4717      4720      4723      4725      4717      4720      4723      4729
      4718      4717      4720      4721      4718      4717      4720      4722
      4718      4717      4720      4723      4719      4717      4720      4721
      4719      4717      4720      4722      4719      4717      4720      4723
      4720      4723      4725      4726      4720      4723      4725      4727
      4720      4723      4725      4728      4720      4723      4729      4730
      4720      4723      4729      4731      4720      4723      4729      4732
      4721      4720      4723      4724      4721      4720      4723      4725
      4721      4720      4723      4729      4722      4720      4723      4724
      4722      4720      4723      4725      4722      4720      4723      4729
      4724      4723      4725      4726      4724      4723      4725      4727
      4724      4723      4725      4728      4724      4723      4729      4730
      4724      4723      4729      4731      4724      4723      4729      4732
      4725      4723      4729      4730      4725      4723      4729      4731
      4725      4723      4729      4732      4726      4725      4723      4729
      4727      4725      4723      4729      4728      4725      4723      4729
      8937      8938      8953      8954      8937      8938      8953      8955
      8937      8938      8953      8959      8938      8937      8941      8942
      8938      8937      8941      8943      8938      8937      8941      8944
      8938      8937      8945      8946      8938      8937      8945      8947
      8938      8937      8945      8948      8938      8937      8949      8950
      8938      8937      8949      8951      8938      8937      8949      8952
      8938      8953      8959      8956      8939      8938      8937      8941
      8939      8938      8937      8945      8939      8938      8937      8949
      8939      8938      8953      8954      8939      8938      8953      8955
      8939      8938      8953      8959      8940      8938      8937      8941
      8940      8938      8937      8945      8940      8938      8937      8949
      8940      8938      8953      8954      8940      8938      8953      8955
      8940      8938      8953      8959      8941      8937      8938      8953
      8941      8937      8945      8946      8941      8937      8945      8947
      8941      8937      8945      8948      8941      8937      8949      8950
      8941      8937      8949      8951      8941      8937      8949      8952
      8942      8941      8937      8945      8942      8941      8937      8949
      8943      8941      8937      8945      8943      8941      8937      8949
      8944      8941      8937      8945      8944      8941      8937      8949
      8945      8937      8938      8953      8945      8937      8949      8950
      8945      8937      8949      8951      8945      8937      8949      8952
      8946      8945      8937      8949      8947      8945      8937      8949
      8948      8945      8937      8949      8949      8937      8938      8953
      8953      8959      8956      8957      8953      8959      8956      8958
      8953      8959      8956      8960      8954      8953      8959      8956
      8955      8953      8959      8956      8956      8960      8961      8962
      8956      8960      8961      8963      8956      8960      8961      8964
      8957      8956      8960      8961      8958      8956      8960      8961
      8959      8956      8960      8961      8960      8961      8964      8965
      8960      8961      8964      8966      8960      8961      8964      8972
      8961      8964      8966      8967      8961      8964      8972      8973
      8961      8964      8972      8974      8961      8964      8972      8975
      8962      8961      8964      8965      8962      8961      8964      8966
      8962      8961      8964      8972      8963      8961      8964      8965
      8963      8961      8964      8966      8963      8961      8964      8972
      8964      8966      8967      8968      8964      8966      8967      8969
      8964      8972      8975      8976      8965      8964      8966      8967
      8965      8964      8972      8973      8965      8964      8972      8974
      8965      8964      8972      8975      8966      8964      8972      8973
      8966      8964      8972      8974      8966      8964      8972      8975
      8966      8967      8969      8970      8966      8967      8969      8971
      8966      8967      8969      8981      8967      8966      8964      8972
      8967      8969      8981      8982      8967      8969      8981      8983
      8967      8969      8981      8984      8968      8967      8969      8970
      8968      8967      8969      8971      8968      8967      8969      8981
      8969      8981      8984      8985      8969      8981      8984      8986
      8969      8981      8984      8987      8970      8969      8981      8982
      8970      8969      8981      8983      8970      8969      8981      8984
      8971      8969      8981      8982      8971      8969      8981      8983
      8971      8969      8981      8984      8972      8975      8976      8977
      8972      8975      8976      8978      8973      8972      8975      8976
      8974      8972      8975      8976      8975      8976      8978      8979
      8975      8976      8978      8980      8975      8976      8978      9028
      8976      8978      9028      9029      8976      8978      9028      9030
      8976      8978      9028      9031      8977      8976      8978      8979
      8977      8976      8978      8980      8977      8976      8978      9028
      8978      9028      9031      9032      8978      9028      9031      9033
      8978      9028      9031      9034      8979      8978      9028      9029
      8979      8978      9028      9030      8979      8978      9028      9031
      8980      8978      9028      9029      8980      8978      9028      9030
      8980      8978      9028      9031      8981      8984      8987      8988
      8981      8984      8987      8989      8982      8981      8984      8985
      8982      8981      8984      8986      8982      8981      8984      8987
      8983      8981      8984      8985      8983      8981      8984      8986
      8983      8981      8984      8987      8984      8987      8989      8990
      8984      8987      8989      8991      8985      8984      8987      8988
      8985      8984      8987      8989      8986      8984      8987      8988
      8986      8984      8987      8989      8987      8989      8991      8992
      8987      8989      8991      8993      8987      8989      8991      8994
      8988      8987      8989      8990      8988      8987      8989      8991
      8989      8991      8994      8995      8989      8991      8994      8996
      8990      8989      8991      8992      8990      8989      8991      8993
      8990      8989      8991      8994      8991      8994      8996      8997
      8991      8994      8996      8998      8992      8991      8994      8995
      8992      8991      8994      8996      8993      8991      8994      8995
      8993      8991      8994      8996      8994      8996      8998      8999
      8994      8996      8998      9000      8994      8996      8998      9001
      8995      8994      8996      8997      8995      8994      8996      8998
      8996      8998      9001      9002      8996      8998      9001      9003
      8997      8996      8998      8999      8997      8996      8998      9000
      8997      8996      8998      9001      8998      9001      9003      9004
      8998      9001      9003      9005      8999      8998      9001      9002
      8999      8998      9001      9003      9000      8998      9001      9002
      9000      8998      9001      9003      9001      9003      9005      9006
      9001      9003      9005      9007      9001      9003      9005      9008
      9002      9001      9003      9004      9002      9001      9003      9005
      9003      9005      9008      9009      9003      9005      9008      9010
      9004      9003      9005      9006      9004      9003      9005      9007
      9004      9003      9005      9008      9005      9008      9010      9011
      9005      9008      9010      9012      9006      9005      9008      9009
      9006      9005      9008      9010      9007      9005      9008      9009
      9007      9005      9008      9010      9008      9010      9012      9013
      9008      9010      9012      9014      9008      9010      9012      9015
      9009      9008      9010      9011      9009      9008      9010      9012
      9010      9012      9015      9016      9010      9012      9015      9017
      9010      9012      9015      9018      9011      9010      9012      9013
      9011      9010      9012      9014      9011      9010      9012      9015
      9012      9015      9018      9019      9012      9015      9018      9020
      9012      9015      9018      9021      9013      9012      9015      9016
      9013      9012      9015      9017      9013      9012      9015      9018
      9014      9012      9015      9016      9014      9012      9015      9017
      9014      9012      9015      9018      9015      9018      9021      9022
      9015      9018      9021      9023      9015      9018      9021      9024
      9016      9015      9018      9019      9016      9015      9018      9020
      9016      9015      9018      9021      9017      9015      9018      9019
      9017      9015      9018      9020      9017      9015      9018      9021
      9018      9021      9024      9025      9018      9021      9024      9026
      9018      9021      9024      9027      9019      9018      9021      9022
      9019      9018      9021      9023      9019      9018      9021      9024
      9020      9018      9021      9022      9020      9018      9021      9023
      9020      9018      9021      9024      9022      9021      9024      9025
      9022      9021      9024      9026      9022      9021      9024      9027
      9023      9021      9024      9025      9023      9021      9024      9026
      9023      9021      9024      9027      9028      9031      9034      9035
      9028      9031      9034      9036      9028      9031      9034      9037
      9029      9028      9031      9032      9029      9028      9031      9033
      9029      9028      9031      9034      9030      9028      9031      9032
      9030      9028      9031      9033      9030      9028      9031      9034
      9031      9034      9037      9038      9031      9034      9037      9039
      9031      9034      9037      9040      9032      9031      9034      9035
      9032      9031      9034      9036      9032      9031      9034      9037
      9033      9031      9034      9035      9033      9031      9034      9036
      9033      9031      9034      9037      9034      9037      9040      9041
      9034      9037      9040      9042      9034      9037      9040      9043
      9035      9034      9037      9038      9035      9034      9037      9039
      9035      9034      9037      9040      9036      9034      9037      9038
      9036      9034      9037      9039      9036      9034      9037      9040
      9037      9040      9043      9044      9037      9040      9043      9045
      9037      9040      9043      9046      9038      9037      9040      9041
      9038      9037      9040      9042      9038      9037      9040      9043
      9039      9037      9040      9041      9039      9037      9040      9042
      9039      9037      9040      9043      9040      9043      9046      9047
      9040      9043      9046      9048      9040      9043      9046      9049
      9041      9040      9043      9044      9041      9040      9043      9045
      9041      9040      9043      9046      9042      9040      9043      9044
      9042      9040      9043      9045      9042      9040      9043      9046
      9043      9046      9049      9050      9043      9046      9049      9051
      9043      9046      9049      9052      9044      9043      9046      9047
      9044      9043      9046      9048      9044      9043      9046      9049
      9045      9043      9046      9047      9045      9043      9046      9048
      9045      9043      9046      9049      9046      9049      9052      9053
      9046      9049      9052      9054      9046      9049      9052      9055
      9047      9046      9049      9050      9047      9046      9049      9051
      9047      9046      9049      9052      9048      9046      9049      9050
      9048      9046      9049      9051      9048      9046      9049      9052
      9049      9052      9055      9056      9049      9052      9055      9057
      9049      9052      9055      9058      9050      9049      9052      9053
      9050      9049      9052      9054      9050      9049      9052      9055
      9051      9049      9052      9053      9051      9049      9052      9054
      9051      9049      9052      9055      9052      9055      9058      9059
      9052      9055      9058      9060      9052      9055      9058      9061
      9053      9052      9055      9056      9053      9052      9055      9057
      9053      9052      9055      9058      9054      9052      9055      9056
      9054      9052      9055      9057      9054      9052      9055      9058
      9055      9058      9061      9062      9055      9058      9061      9063
      9055      9058      9061      9064      9056      9055      9058      9059
      9056      9055      9058      9060      9056      9055      9058      9061
      9057      9055      9058      9059      9057      9055      9058      9060
      9057      9055      9058      9061      9058      9061      9064      9065
      9058      9061      9064      9066      9058      9061      9064      9067
      9059      9058      9061      9062      9059      9058      9061      9063
      9059      9058      9061      9064      9060      9058      9061      9062
      9060      9058      9061      9063      9060      9058      9061      9064
      9061      9064      9067      9068      9061      9064      9067      9069
      9061      9064      9067      9070      9062      9061      9064      9065
      9062      9061      9064      9066      9062      9061      9064      9067
      9063      9061      9064      9065      9063      9061      9064      9066
      9063      9061      9064      9067      9064      9067      9070      9071
      9064      9067      9070      9072      9064      9067      9070      9073
      9065      9064      9067      9068      9065      9064      9067      9069
      9065      9064      9067      9070      9066      9064      9067      9068
      9066      9064      9067      9069      9066      9064      9067      9070
      9067      9070      9073      9074      9067      9070      9073      9075
      9067      9070      9073      9076      9068      9067      9070      9071
      9068      9067      9070      9072      9068      9067      9070      9073
      9069      9067      9070      9071      9069      9067      9070      9072
      9069      9067      9070      9073      9071      9070      9073      9074
      9071      9070      9073      9075      9071      9070      9073      9076
      9072      9070      9073      9074      9072      9070      9073      9075
      9072      9070      9073      9076      9077      9078      9093      9094
      9077      9078      9093      9095      9077      9078      9093      9099
      9078      9077      9081      9082      9078      9077      9081      9083
      9078      9077      9081      9084      9078      9077      9085      9086
      9078      9077      9085      9087      9078      9077      9085      9088
      9078      9077      9089      9090      9078      9077      9089      9091
      9078      9077      9089      9092      9078      9093      9099      9096
      9079      9078      9077      9081      9079      9078      9077      9085
      9079      9078      9077      9089      9079      9078      9093      9094
      9079      9078      9093      9095      9079      9078      9093      9099
      9080      9078      9077      9081      9080      9078      9077      9085
      9080      9078      9077      9089      9080      9078      9093      9094
      9080      9078      9093      9095      9080      9078      9093      9099
      9081      9077      9078      9093      9081      9077      9085      9086
      9081      9077      9085      9087      9081      9077      9085      9088
      9081      9077      9089      9090      9081      9077      9089      9091
      9081      9077      9089      9092      9082      9081      9077      9085
      9082      9081      9077      9089      9083      9081      9077      9085
      9083      9081      9077      9089      9084      9081      9077      9085
      9084      9081      9077      9089      9085      9077      9078      9093
      9085      9077      9089      9090      9085      9077      9089      9091
      9085      9077      9089      9092      9086      9085      9077      9089
      9087      9085      9077      9089      9088      9085      9077      9089
      9089      9077      9078      9093      9093      9099      9096      9097
      9093      9099      9096      9098      9093      9099      9096      9100
      9094      9093      9099      9096      9095      9093      9099      9096
      9096      9100      9101      9102      9096      9100      9101      9103
      9096      9100      9101      9104      9097      9096      9100      9101
      9098      9096      9100      9101      9099      9096      9100      9101
      9100      9101      9104      9105      9100      9101      9104      9106
      9100      9101      9104      9112      9101      9104      9106      9107
      9101      9104      9112      9113      9101      9104      9112      9114
      9101      9104      9112      9115      9102      9101      9104      9105
      9102      9101      9104      9106      9102      9101      9104      9112
      9103      9101      9104      9105      9103      9101      9104      9106
      9103      9101      9104      9112      9104      9106      9107      9108
      9104      9106      9107      9109      9104      9112      9115      9116
      9105      9104      9106      9107      9105      9104      9112      9113
      9105      9104      9112      9114      9105      9104      9112      9115
      9106      9104      9112      9113      9106      9104      9112      9114
      9106      9104      9112      9115      9106      9107      9109      9110
      9106      9107      9109      9111      9106      9107      9109      9121
      9107      9106      9104      9112      9107      9109      9121      9122
      9107      9109      9121      9123      9107      9109      9121      9124
      9108      9107      9109      9110      9108      9107      9109      9111
      9108      9107      9109      9121      9109      9121      9124      9125
      9109      9121      9124      9126      9109      9121      9124      9127
      9110      9109      9121      9122      9110      9109      9121      9123
      9110      9109      9121      9124      9111      9109      9121      9122
      9111      9109      9121      9123      9111      9109      9121      9124
      9112      9115      9116      9117      9112      9115      9116      9118
      9113      9112      9115      9116      9114      9112      9115      9116
      9115      9116      9118      9119      9115      9116      9118      9120
      9115      9116      9118      9168      9116      9118      9168      9169
      9116      9118      9168      9170      9116      9118      9168      9171
      9117      9116      9118      9119      9117      9116      9118      9120
      9117      9116      9118      9168      9118      9168      9171      9172
      9118      9168      9171      9173      9118      9168      9171      9174
      9119      9118      9168      9169      9119      9118      9168      9170
      9119      9118      9168      9171      9120      9118      9168      9169
      9120      9118      9168      9170      9120      9118      9168      9171
      9121      9124      9127      9128      9121      9124      9127      9129
      9122      9121      9124      9125      9122      9121      9124      9126
      9122      9121      9124      9127      9123      9121      9124      9125
      9123      9121      9124      9126      9123      9121      9124      9127
      9124      9127      9129      9130      9124      9127      9129      9131
      9125      9124      9127      9128      9125      9124      9127      9129
      9126      9124      9127      9128      9126      9124      9127      9129
      9127      9129      9131      9132      9127      9129      9131      9133
      9127      9129      9131      9134      9128      9127      9129      9130
      9128      9127      9129      9131      9129      9131      9134      9135
      9129      9131      9134      9136      9130      9129      9131      9132
      9130      9129      9131      9133      9130      9129      9131      9134
      9131      9134      9136      9137      9131      9134      9136      9138
      9132      9131      9134      9135      9132      9131      9134      9136
      9133      9131      9134      9135      9133      9131      9134      9136
      9134      9136      9138      9139      9134      9136      9138      9140
      9134      9136      9138      9141      9135      9134      9136      9137
      9135      9134      9136      9138      9136      9138      9141      9142
      9136      9138      9141      9143      9137      9136      9138      9139
      9137      9136      9138      9140      9137      9136      9138      9141
      9138      9141      9143      9144      9138      9141      9143      9145
      9139      9138      9141      9142      9139      9138      9141      9143
      9140      9138      9141      9142      9140      9138      9141      9143
      9141      9143      9145      9146      9141      9143      9145      9147
      9141      9143      9145      9148      9142      9141      9143      9144
      9142      9141      9143      9145      9143      9145      9148      9149
      9143      9145      9148      9150      9144      9143      9145      9146
      9144      9143      9145      9147      9144      9143      9145      9148
      9145      9148      9150      9151      9145      9148      9150      9152
      9146      9145      9148      9149      9146      9145      9148      9150
      9147      9145      9148      9149      9147      9145      9148      9150
      9148      9150      9152      9153      9148      9150      9152      9154
      9148      9150      9152      9155      9149      9148      9150      9151
      9149      9148      9150      9152      9150      9152      9155      9156
      9150      9152      9155      9157      9150      9152      9155      9158
      9151      9150      9152      9153      9151      9150      9152      9154
      9151      9150      9152      9155      9152      9155      9158      9159
      9152      9155      9158      9160      9152      9155      9158      9161
      9153      9152      9155      9156      9153      9152      9155      9157
      9153      9152      9155      9158      9154      9152      9155      9156
      9154      9152      9155      9157      9154      9152      9155      9158
      9155      9158      9161      9162      9155      9158      9161      9163
      9155      9158      9161      9164      9156      9155      9158      9159
      9156      9155      9158      9160      9156      9155      9158      9161
      9157      9155      9158      9159      9157      9155      9158      9160
      9157      9155      9158      9161      9158      9161      9164      9165
      9158      9161      9164      9166      9158      9161      9164      9167
      9159      9158      9161      9162      9159      9158      9161      9163
      9159      9158      9161      9164      9160      9158      9161      9162
      9160      9158      9161      9163      9160      9158      9161      9164
      9162      9161      9164      9165      9162      9161      9164      9166
      9162      9161      9164      9167      9163      9161      9164      9165
      9163      9161      9164      9166      9163      9161      9164      9167
      9168      9171      9174      9175      9168      9171      9174      9176
      9168      9171      9174      9177      9169      9168      9171      9172
      9169      9168      9171      9173      9169      9168      9171      9174
      9170      9168      9171      9172      9170      9168      9171      9173
      9170      9168      9171      9174      9171      9174      9177      9178
      9171      9174      9177      9179      9171      9174      9177      9180
      9172      9171      9174      9175      9172      9171      9174      9176
      9172      9171      9174      9177      9173      9171      9174      9175
      9173      9171      9174      9176      9173      9171      9174      9177
      9174      9177      9180      9181      9174      9177      9180      9182
      9174      9177      9180      9183      9175      9174      9177      9178
      9175      9174      9177      9179      9175      9174      9177      9180
      9176      9174      9177      9178      9176      9174      9177      9179
      9176      9174      9177      9180      9177      9180      9183      9184
      9177      9180      9183      9185      9177      9180      9183      9186
      9178      9177      9180      9181      9178      9177      9180      9182
      9178      9177      9180      9183      9179      9177      9180      9181
      9179      9177      9180      9182      9179      9177      9180      9183
      9180      9183      9186      9187      9180      9183      9186      9188
      9180      9183      9186      9189      9181      9180      9183      9184
      9181      9180      9183      9185      9181      9180      9183      9186
      9182      9180      9183      9184      9182      9180      9183      9185
      9182      9180      9183      9186      9183      9186      9189      9190
      9183      9186      9189      9191      9183      9186      9189      9192
      9184      9183      9186      9187      9184      9183      9186      9188
      9184      9183      9186      9189      9185      9183      9186      9187
      9185      9183      9186      9188      9185      9183      9186      9189
      9186      9189      9192      9193      9186      9189      9192      9194
      9186      9189      9192      9195      9187      9186      9189      9190
      9187      9186      9189      9191      9187      9186      9189      9192
      9188      9186      9189      9190      9188      9186      9189      9191
      9188      9186      9189      9192      9189      9192      9195      9196
      9189      9192      9195      9197      9189      9192      9195      9198
      9190      9189      9192      9193      9190      9189      9192      9194
      9190      9189      9192      9195      9191      9189      9192      9193
      9191      9189      9192      9194      9191      9189      9192      9195
      9192      9195      9198      9199      9192      9195      9198      9200
      9192      9195      9198      9201      9193      9192      9195      9196
      9193      9192      9195      9197      9193      9192      9195      9198
      9194      9192      9195      9196      9194      9192      9195      9197
      9194      9192      9195      9198      9195      9198      9201      9202
      9195      9198      9201      9203      9195      9198      9201      9204
      9196      9195      9198      9199      9196      9195      9198      9200
      9196      9195      9198      9201      9197      9195      9198      9199
      9197      9195      9198      9200      9197      9195      9198      9201
      9198      9201      9204      9205      9198      9201      9204      9206
      9198      9201      9204      9207      9199      9198      9201      9202
      9199      9198      9201      9203      9199      9198      9201      9204
      9200      9198      9201      9202      9200      9198      9201      9203
      9200      9198      9201      9204      9201      9204      9207      9208
      9201      9204      9207      9209      9201      9204      9207      9210
      9202      9201      9204      9205      9202      9201      9204      9206
      9202      9201      9204      9207      9203      9201      9204      9205
      9203      9201      9204      9206      9203      9201      9204      9207
      9204      9207      9210      9211      9204      9207      9210      9212
      9204      9207      9210      9213      9205      9204      9207      9208
      9205      9204      9207      9209      9205      9204      9207      9210
      9206      9204      9207      9208      9206      9204      9207      9209
      9206      9204      9207      9210      9207      9210      9213      9214
      9207      9210      9213      9215      9207      9210      9213      9216
      9208      9207      9210      9211      9208      9207      9210      9212
      9208      9207      9210      9213      9209      9207      9210      9211
      9209      9207      9210      9212      9209      9207      9210      9213
      9211      9210      9213      9214      9211      9210      9213      9215
      9211      9210      9213      9216      9212      9210      9213      9214
      9212      9210      9213      9215      9212      9210      9213      9216
      1198      1202      1204      1205      1198      1202      1204      1206
      1198      1202      1207      1208      1198      1202      1207      1209
      1198      1202      1207      1213      1199      1198      1202      1203
      1199      1198      1202      1204      1199      1198      1202      1207
      1200      1198      1202      1203      1200      1198      1202      1204
      1200      1198      1202      1207      1201      1198      1202      1203
      1201      1198      1202      1204      1201      1198      1202      1207
      1202      1207      1213      1210      1203      1202      1204      1205
      1203      1202      1204      1206      1203      1202      1207      1208
      1203      1202      1207      1209      1203      1202      1207      1213
      1204      1202      1207      1208      1204      1202      1207      1209
      1204      1202      1207      1213      1205      1204      1202      1207
      1206      1204      1202      1207      1207      1213      1210      1211
      1207      1213      1210      1212      1207      1213      1210      1214
      1208      1207      1213      1210      1209      1207      1213      1210
      1210      1214      1215      1216      1210      1214      1215      1217
      1210      1214      1215      1218      1211      1210      1214      1215
      1212      1210      1214      1215      1213      1210      1214      1215
      1214      1215      1218      1219      1214      1215      1218      1220
      1214      1215      1218      1226      1215      1218      1220      1221
      1215      1218      1226      1227      1215      1218      1226      1228
      1215      1218      1226      1229      1216      1215      1218      1219
      1216      1215      1218      1220      1216      1215      1218      1226
      1217      1215      1218      1219      1217      1215      1218      1220
      1217      1215      1218      1226      1218      1220      1221      1222
      1218      1220      1221      1223      1218      1226      1229      1230
      1219      1218      1220      1221      1219      1218      1226      1227
      1219      1218      1226      1228      1219      1218      1226      1229
      1220      1218      1226      1227      1220      1218      1226      1228
      1220      1218      1226      1229      1220      1221      1223      1224
      1220      1221      1223      1225      1220      1221      1223      1235
      1221      1220      1218      1226      1221      1223      1235      1236
      1221      1223      1235      1237      1221      1223      1235      1238
      1222      1221      1223      1224      1222      1221      1223      1225
      1222      1221      1223      1235      1223      1235      1238      1239
      1223      1235      1238      1240      1223      1235      1238      1241
      1224      1223      1235      1236      1224      1223      1235      1237
      1224      1223      1235      1238      1225      1223      1235      1236
      1225      1223      1235      1237      1225      1223      1235      1238
      1226      1229      1230      1231      1226      1229      1230      1232
      1227      1226      1229      1230      1228      1226      1229      1230
      1229      1230      1232      1233      1229      1230      1232      1234
      1229      1230      1232      1282      1230      1232      1282      1283
      1230      1232      1282      1284      1230      1232      1282      1285
      1231      1230      1232      1233      1231      1230      1232      1234
      1231      1230      1232      1282      1232      1282      1285      1286
      1232      1282      1285      1287      1232      1282      1285      1288
      1233      1232      1282      1283      1233      1232      1282      1284
      1233      1232      1282      1285      1234      1232      1282      1283
      1234      1232      1282      1284      1234      1232      1282      1285
      1235      1238      1241      1242      1235      1238      1241      1243
      1236      1235      1238      1239      1236      1235      1238      1240
      1236      1235      1238      1241      1237      1235      1238      1239
      1237      1235      1238      1240      1237      1235      1238      1241
      1238      1241      1243      1244      1238      1241      1243      1245
      1239      1238      1241      1242      1239      1238      1241      1243
      1240      1238      1241      1242      1240      1238      1241      1243
      1241      1243      1245      1246      1241      1243      1245      1247
      1241      1243      1245      1248      1242      1241      1243      1244
      1242      1241      1243      1245      1243      1245      1248      1249
      1243      1245      1248      1250      1244      1243      1245      1246
      1244      1243      1245      1247      1244      1243      1245      1248
      1245      1248      1250      1251      1245      1248      1250      1252
      1246      1245      1248      1249      1246      1245      1248      1250
      1247      1245      1248      1249      1247      1245      1248      1250
      1248      1250      1252      1253      1248      1250      1252      1254
      1248      1250      1252      1255      1249      1248      1250      1251
      1249      1248      1250      1252      1250      1252      1255      1256
      1250      1252      1255      1257      1251      1250      1252      1253
      1251      1250      1252      1254      1251      1250      1252      1255
      1252      1255      1257      1258      1252      1255      1257      1259
      1253      1252      1255      1256      1253      1252      1255      1257
      1254      1252      1255      1256      1254      1252      1255      1257
      1255      1257      1259      1260      1255      1257      1259      1261
      1255      1257      1259      1262      1256      1255      1257      1258
      1256      1255      1257      1259      1257      1259      1262      1263
      1257      1259      1262      1264      1258      1257      1259      1260
      1258      1257      1259      1261      1258      1257      1259      1262
      1259      1262      1264      1265      1259      1262      1264      1266
      1260      1259      1262      1263      1260      1259      1262      1264
      1261      1259      1262      1263      1261      1259      1262      1264
      1262      1264      1266      1267      1262      1264      1266      1268
      1262      1264      1266      1269      1263      1262      1264      1265
      1263      1262      1264      1266      1264      1266      1269      1270
      1264      1266      1269      1271      1264      1266      1269      1272
      1265      1264      1266      1267      1265      1264      1266      1268
      1265      1264      1266      1269      1266      1269      1272      1273
      1266      1269      1272      1274      1266      1269      1272      1275
      1267      1266      1269      1270      1267      1266      1269      1271
      1267      1266      1269      1272      1268      1266      1269      1270
      1268      1266      1269      1271      1268      1266      1269      1272
      1269      1272      1275      1276      1269      1272      1275      1277
      1269      1272      1275      1278      1270      1269      1272      1273
      1270      1269      1272      1274      1270      1269      1272      1275
      1271      1269      1272      1273      1271      1269      1272      1274
      1271      1269      1272      1275      1272      1275      1278      1279
      1272      1275      1278      1280      1272      1275      1278      1281
      1273      1272      1275      1276      1273      1272      1275      1277
      1273      1272      1275      1278      1274      1272      1275      1276
      1274      1272      1275      1277      1274      1272      1275      1278
      1276      1275      1278      1279      1276      1275      1278      1280
      1276      1275      1278      1281      1277      1275      1278      1279
      1277      1275      1278      1280      1277      1275      1278      1281
      1282      1285      1288      1289      1282      1285      1288      1290
      1282      1285      1288      1291      1283      1282      1285      1286
      1283      1282      1285      1287      1283      1282      1285      1288
      1284      1282      1285      1286      1284      1282      1285      1287
      1284      1282      1285      1288      1285      1288      1291      1292
      1285      1288      1291      1293      1285      1288      1291      1294
      1286      1285      1288      1289      1286      1285      1288      1290
      1286      1285      1288      1291      1287      1285      1288      1289
      1287      1285      1288      1290      1287      1285      1288      1291
      1288      1291      1294      1295      1288      1291      1294      1296
      1288      1291      1294      1297      1289      1288      1291      1292
      1289      1288      1291      1293      1289      1288      1291      1294
      1290      1288      1291      1292      1290      1288      1291      1293
      1290      1288      1291      1294      1291      1294      1297      1298
      1291      1294      1297      1299      1291      1294      1297      1300
      1292      1291      1294      1295      1292      1291      1294      1296
      1292      1291      1294      1297      1293      1291      1294      1295
      1293      1291      1294      1296      1293      1291      1294      1297
      1294      1297      1300      1301      1294      1297      1300      1302
      1294      1297      1300      1303      1295      1294      1297      1298
      1295      1294      1297      1299      1295      1294      1297      1300
      1296      1294      1297      1298      1296      1294      1297      1299
      1296      1294      1297      1300      1297      1300      1303      1304
      1297      1300      1303      1305      1297      1300      1303      1306
      1298      1297      1300      1301      1298      1297      1300      1302
      1298      1297      1300      1303      1299      1297      1300      1301
      1299      1297      1300      1302      1299      1297      1300      1303
      1300      1303      1306      1307      1300      1303      1306      1308
      1300      1303      1306      1309      1301      1300      1303      1304
      1301      1300      1303      1305      1301      1300      1303      1306
      1302      1300      1303      1304      1302      1300      1303      1305
      1302      1300      1303      1306      1303      1306      1309      1310
      1303      1306      1309      1311      1303      1306      1309      1312
      1304      1303      1306      1307      1304      1303      1306      1308
      1304      1303      1306      1309      1305      1303      1306      1307
      1305      1303      1306      1308      1305      1303      1306      1309
      1306      1309      1312      1313      1306      1309      1312      1314
      1306      1309      1312      1315      1307      1306      1309      1310
      1307      1306      1309      1311      1307      1306      1309      1312
      1308      1306      1309      1310      1308      1306      1309      1311
      1308      1306      1309      1312      1309      1312      1315      1316
      1309      1312      1315      1317      1309      1312      1315      1318
      1310      1309      1312      1313      1310      1309      1312      1314
      1310      1309      1312      1315      1311      1309      1312      1313
      1311      1309      1312      1314      1311      1309      1312      1315
      1312      1315      1318      1319      1312      1315      1318      1320
      1312      1315      1318      1321      1313      1312      1315      1316
      1313      1312      1315      1317      1313      1312      1315      1318
      1314      1312      1315      1316      1314      1312      1315      1317
      1314      1312      1315      1318      1315      1318      1321      1322
      1315      1318      1321      1323      1315      1318      1321      1324
      1316      1315      1318      1319      1316      1315      1318      1320
      1316      1315      1318      1321      1317      1315      1318      1319
      1317      1315      1318      1320      1317      1315      1318      1321
      1318      1321      1324      1325      1318      1321      1324      1326
      1318      1321      1324      1327      1319      1318      1321      1322
      1319      1318      1321      1323      1319      1318      1321      1324
      1320      1318      1321      1322      1320      1318      1321      1323
      1320      1318      1321      1324      1321      1324      1327      1328
      1321      1324      1327      1329      1321      1324      1327      1330
      1322      1321      1324      1325      1322      1321      1324      1326
      1322      1321      1324      1327      1323      1321      1324      1325
      1323      1321      1324      1326      1323      1321      1324      1327
      1325      1324      1327      1328      1325      1324      1327      1329
      1325      1324      1327      1330      1326      1324      1327      1328
      1326      1324      1327      1329      1326      1324      1327      1330
      4733      4737      4740      4741      4733      4737      4740      4771
      4733      4779      4776      4771      4733      4779      4776      4777
      4733      4779      4776      4778      4734      4733      4735      4736
      4734      4733      4737      4738      4734      4733      4737      4739
      4734      4733      4737      4740      4734      4733      4779      4776
      4734      4733      4779      4780      4734      4733      4779      4781
      4735      4733      4737      4738      4735      4733      4737      4739
      4735      4733      4737      4740      4735      4733      4779      4776
      4735      4733      4779      4780      4735      4733      4779      4781
      4736      4735      4733      4737      4736      4735      4733      4779
      4737      4733      4779      4776      4737      4733      4779      4780
      4737      4733      4779      4781      4737      4740      4741      4742
      4737      4740      4741      4743      4737      4740      4771      4769
      4737      4740      4771      4772      4737      4740      4771      4776
      4738      4737      4733      4779      4738      4737      4740      4741
      4738      4737      4740      4771      4739      4737      4733      4779
      4739      4737      4740      4741      4739      4737      4740      4771
      4740      4737      4733      4779      4740      4741      4743      4744
      4740      4741      4743      4745      4740      4741      4743      4746
      4740      4771      4769      4746      4740      4771      4769      4766
      4740      4771      4769      4770      4740      4771      4772      4773
      4740      4771      4772      4774      4740      4771      4772      4775
      4740      4771      4776      4777      4740      4771      4776      4778
      4740      4771      4776      4779      4741      4740      4771      4769
      4741      4740      4771      4772      4741      4740      4771      4776
      4741      4743      4746      4747      4741      4743      4746      4748
      4741      4743      4746      4769      4742      4741      4740      4771
      4742      4741      4743      4744      4742      4741      4743      4745
      4742      4741      4743      4746      4743      4741      4740      4771
      4743      4746      4748      4749      4743      4746      4748      4750
      4743      4746      4748      4758      4743      4746      4769      4766
      4743      4746      4769      4770      4743      4746      4769      4771
      4744      4743      4746      4747      4744      4743      4746      4748
      4744      4743      4746      4769      4745      4743      4746      4747
      4745      4743      4746      4748      4745      4743      4746      4769
      4746      4748      4750      4751      4746      4748      4750      4752
      4746      4748      4750      4753      4746      4748      4758      4756
      4746      4748      4758      4759      4746      4748      4758      4763
      4746      4769      4766      4763      4746      4769      4766      4767
      4746      4769      4766      4768      4746      4769      4771      4772
      4746      4769      4771      4776      4747      4746      4748      4749
      4747      4746      4748      4750      4747      4746      4748      4758
      4747      4746      4769      4766      4747      4746      4769      4770
      4747      4746      4769      4771      4748      4746      4769      4766
      4748      4746      4769      4770      4748      4746      4769      4771
      4748      4750      4753      4754      4748      4750      4753      4755
      4748      4750      4753      4756      4748      4758      4756      4753
      4748      4758      4756      4757      4748      4758      4756      4782
      4748      4758      4759      4760      4748      4758      4759      4761
      4748      4758      4759      4762      4748      4758      4763      4764
      4748      4758      4763      4765      4748      4758      4763      4766
      4749      4748      4746      4769      4749      4748      4750      4751
      4749      4748      4750      4752      4749      4748      4750      4753
      4749      4748      4758      4756      4749      4748      4758      4759
      4749      4748      4758      4763      4750      4748      4746      4769
      4750      4748      4758      4756      4750      4748      4758      4759
      4750      4748      4758      4763      4750      4753      4756      4757
      4750      4753      4756      4758      4750      4753      4756      4782
      4751      4750      4748      4758      4751      4750      4753      4754
      4751      4750      4753      4755      4751      4750      4753      4756
      4752      4750      4748      4758      4752      4750      4753      4754
      4752      4750      4753      4755      4752      4750      4753      4756
      4753      4750      4748      4758      4753      4756      4758      4759
      4753      4756      4758      4763      4753      4756      4782      4783
      4753      4756      4782      4784      4753      4756      4782      4788
      4754      4753      4756      4757      4754      4753      4756      4758
      4754      4753      4756      4782      4755      4753      4756      4757
      4755      4753      4756      4758      4755      4753      4756      4782
      4756      4758      4759      4760      4756      4758      4759      4761
      4756      4758      4759      4762      4756      4758      4763      4764
      4756      4758      4763      4765      4756      4758      4763      4766
      4756      4782      4784      4785      4756      4782      4784      4786
      4756      4782      4784      4787      4756      4782      4788      4789
      4756      4782      4788      4790      4756      4782      4788      4791
      4757      4756      4758      4759      4757      4756      4758      4763
      4757      4756      4782      4783      4757      4756      4782      4784
      4757      4756      4782      4788      4758      4748      4746      4769
      4758      4756      4782      4783      4758      4756      4782      4784
      4758      4756      4782      4788      4758      4763      4766      4767
      4758      4763      4766      4768      4758      4763      4766      4769
      4759      4758      4756      4782      4759      4758      4763      4764
      4759      4758      4763      4765      4759      4758      4763      4766
      4760      4759      4758      4763      4761      4759      4758      4763
      4762      4759      4758      4763      4763      4758      4756      4782
      4763      4766      4769      4770      4763      4766      4769      4771
      4764      4763      4766      4767      4764      4763      4766      4768
      4764      4763      4766      4769      4765      4763      4766      4767
      4765      4763      4766      4768      4765      4763      4766      4769
      4766      4769      4771      4772      4766      4769      4771      4776
      4767      4766      4769      4770      4767      4766      4769      4771
      4768      4766      4769      4770      4768      4766      4769      4771
      4769      4771      4772      4773      4769      4771      4772      4774
      4769      4771      4772      4775      4769      4771      4776      4777
      4769      4771      4776      4778      4769      4771      4776      4779
      4770      4769      4771      4772      4770      4769      4771      4776
      4771      4776      4779      4780      4771      4776      4779      4781
      4772      4771      4776      4777      4772      4771      4776      4778
      4772      4771      4776      4779      4773      4772      4771      4776
      4774      4772      4771      4776      4775      4772      4771      4776
      4777      4776      4779      4780      4777      4776      4779      4781
      4778      4776      4779      4780      4778      4776      4779      4781
      4782      4788      4791      4792      4782      4788      4791      4793
      4782      4788      4791      4794      4783      4782      4784      4785
      4783      4782      4784      4786      4783      4782      4784      4787
      4783      4782      4788      4789      4783      4782      4788      4790
      4783      4782      4788      4791      4784      4782      4788      4789
      4784      4782      4788      4790      4784      4782      4788      4791
      4785      4784      4782      4788      4786      4784      4782      4788
      4787      4784      4782      4788      4788      4791      4794      4795
      4788      4791      4794      4796      4788      4791      4794      4797
      4789      4788      4791      4792      4789      4788      4791      4793
      4789      4788      4791      4794      4790      4788      4791      4792
      4790      4788      4791      4793      4790      4788      4791      4794
      4791      4794      4797      4798      4791      4794      4797      4799
      4791      4794      4797      4803      4792      4791      4794      4795
      4792      4791      4794      4796      4792      4791      4794      4797
      4793      4791      4794      4795      4793      4791      4794      4796
      4793      4791      4794      4797      4794      4797      4799      4800
      4794      4797      4799      4801      4794      4797      4799      4802
      4794      4797      4803      4804      4794      4797      4803      4805
      4794      4797      4803      4806      4795      4794      4797      4798
      4795      4794      4797      4799      4795      4794      4797      4803
      4796      4794      4797      4798      4796      4794      4797      4799
      4796      4794      4797      4803      4798      4797      4799      4800
      4798      4797      4799      4801      4798      4797      4799      4802
      4798      4797      4803      4804      4798      4797      4803      4805
      4798      4797      4803      4806      4799      4797      4803      4804
      4799      4797      4803      4805      4799      4797      4803      4806
      4800      4799      4797      4803      4801      4799      4797      4803
      4802      4799      4797      4803     12939     12952     12955     12956
     12939     12952     12955     12957     12939     12952     12955     12962
     12940     12939     12944     12945     12940     12939     12944     12946
     12940     12939     12944     12947     12940     12939     12948     12949
     12940     12939     12948     12950     12940     12939     12948     12951
     12940     12939     12952     12953     12940     12939     12952     12954
     12940     12939     12952     12955     12941     12940     12939     12944
     12941     12940     12939     12948     12941     12940     12939     12952
     12942     12940     12939     12944     12942     12940     12939     12948
     12942     12940     12939     12952     12943     12940     12939     12944
     12943     12940     12939     12948     12943     12940     12939     12952
     12944     12939     12948     12949     12944     12939     12948     12950
     12944     12939     12948     12951     12944     12939     12952     12953
     12944     12939     12952     12954     12944     12939     12952     12955
     12945     12944     12939     12948     12945     12944     12939     12952
     12946     12944     12939     12948     12946     12944     12939     12952
     12947     12944     12939     12948     12947     12944     12939     12952
     12948     12939     12952     12953     12948     12939     12952     12954
     12948     12939     12952     12955     12949     12948     12939     12952
     12950     12948     12939     12952     12951     12948     12939     12952
     12952     12955     12962     12958     12953     12952     12955     12956
     12953     12952     12955     12957     12953     12952     12955     12962
     12954     12952     12955     12956     12954     12952     12955     12957
     12954     12952     12955     12962     12955     12962     12958     12959
     12955     12962     12958     12960     12955     12962     12958     12961
     12956     12955     12962     12958     12957     12955     12962     12958
     12958     12961     12963     12964     12958     12961     12963     12965
     12958     12961     12963     12968     12959     12958     12961     12963
     12960     12958     12961     12963     12961     12963     12968     12966
     12961     12963     12968     12969     12961     12963     12968     12970
     12962     12958     12961     12963     12963     12968     12966     12967
     12963     12968     12966     13018     12963     12968     12970     12971
     12963     12968     12970     12972     12963     12968     12970     12974
     12964     12963     12968     12966     12964     12963     12968     12969
     12964     12963     12968     12970     12965     12963     12968     12966
     12965     12963     12968     12969     12965     12963     12968     12970
     12966     12968     12970     12971     12966     12968     12970     12972
     12966     12968     12970     12974     12966     13018     13020     13021
     12966     13018     13020     13022     12966     13018     13020     13023
     12967     12966     12968     12969     12967     12966     12968     12970
     12967     12966     13018     13019     12967     12966     13018     13020
     12968     12966     13018     13019     12968     12966     13018     13020
     12968     12970     12972     12973     12968     12970     12974     12975
     12968     12970     12974     12976     12969     12968     12966     13018
     12969     12968     12970     12971     12969     12968     12970     12972
     12969     12968     12970     12974     12970     12968     12966     13018
     12970     12974     12976     12977     12970     12974     12976     12978
     12971     12970     12972     12973     12971     12970     12974     12975
     12971     12970     12974     12976     12972     12970     12974     12975
     12972     12970     12974     12976     12973     12972     12970     12974
     12974     12976     12978     12979     12974     12976     12978     12980
     12974     12976     12978     12981     12975     12974     12976     12977
     12975     12974     12976     12978     12976     12978     12981     12982
     12976     12978     12981     12983     12976     12978     12981     12984
     12977     12976     12978     12979     12977     12976     12978     12980
     12977     12976     12978     12981     12978     12981     12984     12985
     12978     12981     12984     12986     12978     12981     12984     12987
     12979     12978     12981     12982     12979     12978     12981     12983
     12979     12978     12981     12984     12980     12978     12981     12982
     12980     12978     12981     12983     12980     12978     12981     12984
     12981     12984     12987     12988     12981     12984     12987     12989
     12981     12984     12987     12990     12982     12981     12984     12985
     12982     12981     12984     12986     12982     12981     12984     12987
     12983     12981     12984     12985     12983     12981     12984     12986
     12983     12981     12984     12987     12984     12987     12990     12991
     12984     12987     12990     12992     12984     12987     12990     12993
     12985     12984     12987     12988     12985     12984     12987     12989
     12985     12984     12987     12990     12986     12984     12987     12988
     12986     12984     12987     12989     12986     12984     12987     12990
     12987     12990     12993     12994     12987     12990     12993     12995
     12987     12990     12993     12996     12988     12987     12990     12991
     12988     12987     12990     12992     12988     12987     12990     12993
     12989     12987     12990     12991     12989     12987     12990     12992
     12989     12987     12990     12993     12990     12993     12996     12997
     12990     12993     12996     12998     12990     12993     12996     12999
     12991     12990     12993     12994     12991     12990     12993     12995
     12991     12990     12993     12996     12992     12990     12993     12994
     12992     12990     12993     12995     12992     12990     12993     12996
     12993     12996     12999     13000     12993     12996     12999     13001
     12993     12996     12999     13002     12994     12993     12996     12997
     12994     12993     12996     12998     12994     12993     12996     12999
     12995     12993     12996     12997     12995     12993     12996     12998
     12995     12993     12996     12999     12996     12999     13002     13003
     12996     12999     13002     13004     12996     12999     13002     13005
     12997     12996     12999     13000     12997     12996     12999     13001
     12997     12996     12999     13002     12998     12996     12999     13000
     12998     12996     12999     13001     12998     12996     12999     13002
     12999     13002     13005     13006     12999     13002     13005     13007
     12999     13002     13005     13008     13000     12999     13002     13003
     13000     12999     13002     13004     13000     12999     13002     13005
     13001     12999     13002     13003     13001     12999     13002     13004
     13001     12999     13002     13005     13002     13005     13008     13009
     13002     13005     13008     13010     13002     13005     13008     13011
     13003     13002     13005     13006     13003     13002     13005     13007
     13003     13002     13005     13008     13004     13002     13005     13006
     13004     13002     13005     13007     13004     13002     13005     13008
     13005     13008     13011     13012     13005     13008     13011     13013
     13005     13008     13011     13014     13006     13005     13008     13009
     13006     13005     13008     13010     13006     13005     13008     13011
     13007     13005     13008     13009     13007     13005     13008     13010
     13007     13005     13008     13011     13008     13011     13014     13015
     13008     13011     13014     13016     13008     13011     13014     13017
     13009     13008     13011     13012     13009     13008     13011     13013
     13009     13008     13011     13014     13010     13008     13011     13012
     13010     13008     13011     13013     13010     13008     13011     13014
     13012     13011     13014     13015     13012     13011     13014     13016
     13012     13011     13014     13017     13013     13011     13014     13015
     13013     13011     13014     13016     13013     13011     13014     13017
     13018     13020     13023     13024     13018     13020     13023     13025
     13018     13020     13023     13026     13019     13018     13020     13021
     13019     13018     13020     13022     13019     13018     13020     13023
     13020     13023     13026     13027     13020     13023     13026     13028
     13020     13023     13026     13029     13021     13020     13023     13024
     13021     13020     13023     13025     13021     13020     13023     13026
     13022     13020     13023     13024     13022     13020     13023     13025
     13022     13020     13023     13026     13023     13026     13029     13030
     13023     13026     13029     13031     13023     13026     13029     13032
     13024     13023     13026     13027     13024     13023     13026     13028
     13024     13023     13026     13029     13025     13023     13026     13027
     13025     13023     13026     13028     13025     13023     13026     13029
     13026     13029     13032     13033     13026     13029     13032     13034
     13026     13029     13032     13035     13027     13026     13029     13030
     13027     13026     13029     13031     13027     13026     13029     13032
     13028     13026     13029     13030     13028     13026     13029     13031
     13028     13026     13029     13032     13029     13032     13035     13036
     13029     13032     13035     13037     13029     13032     13035     13038
     13030     13029     13032     13033     13030     13029     13032     13034
     13030     13029     13032     13035     13031     13029     13032     13033
     13031     13029     13032     13034     13031     13029     13032     13035
     13032     13035     13038     13039     13032     13035     13038     13040
     13032     13035     13038     13041     13033     13032     13035     13036
     13033     13032     13035     13037     13033     13032     13035     13038
     13034     13032     13035     13036     13034     13032     13035     13037
     13034     13032     13035     13038     13035     13038     13041     13042
     13035     13038     13041     13043     13036     13035     13038     13039
     13036     13035     13038     13040     13036     13035     13038     13041
     13037     13035     13038     13039     13037     13035     13038     13040
     13037     13035     13038     13041     13038     13041     13043     13044
     13038     13041     13043     13045     13039     13038     13041     13042
     13039     13038     13041     13043     13040     13038     13041     13042
     13040     13038     13041     13043     13041     13043     13045     13046
     13041     13043     13045     13047     13041     13043     13045     13048
     13042     13041     13043     13044     13042     13041     13043     13045
     13043     13045     13048     13049     13043     13045     13048     13050
     13043     13045     13048     13051     13044     13043     13045     13046
     13044     13043     13045     13047     13044     13043     13045     13048
     13045     13048     13051     13052     13045     13048     13051     13053
     13045     13048     13051     13054     13046     13045     13048     13049
     13046     13045     13048     13050     13046     13045     13048     13051
     13047     13045     13048     13049     13047     13045     13048     13050
     13047     13045     13048     13051     13048     13051     13054     13055
     13048     13051     13054     13056     13048     13051     13054     13057
     13049     13048     13051     13052     13049     13048     13051     13053
     13049     13048     13051     13054     13050     13048     13051     13052
     13050     13048     13051     13053     13050     13048     13051     13054
     13051     13054     13057     13058     13051     13054     13057     13059
     13051     13054     13057     13060     13052     13051     13054     13055
     13052     13051     13054     13056     13052     13051     13054     13057
     13053     13051     13054     13055     13053     13051     13054     13056
     13053     13051     13054     13057     13054     13057     13060     13061
     13054     13057     13060     13062     13054     13057     13060     13063
     13055     13054     13057     13058     13055     13054     13057     13059
     13055     13054     13057     13060     13056     13054     13057     13058
     13056     13054     13057     13059     13056     13054     13057     13060
     13057     13060     13063     13064     13057     13060     13063     13065
     13057     13060     13063     13066     13058     13057     13060     13061
     13058     13057     13060     13062     13058     13057     13060     13063
     13059     13057     13060     13061     13059     13057     13060     13062
     13059     13057     13060     13063     13060     13063     13066     13067
     13060     13063     13066     13068     13060     13063     13066     13069
     13061     13060     13063     13064     13061     13060     13063     13065
     13061     13060     13063     13066     13062     13060     13063     13064
     13062     13060     13063     13065     13062     13060     13063     13066
     13064     13063     13066     13067     13064     13063     13066     13068
     13064     13063     13066     13069     13065     13063     13066     13067
     13065     13063     13066     13068     13065     13063     13066     13069
      1331      1335      1337      1338      1331      1335      1337      1339
      1331      1335      1340      1341      1331      1335      1340      1342
      1331      1335      1340      1346      1332      1331      1335      1336
      1332      1331      1335      1337      1332      1331      1335      1340
      1333      1331      1335      1336      1333      1331      1335      1337
      1333      1331      1335      1340      1334      1331      1335      1336
      1334      1331      1335      1337      1334      1331      1335      1340
      1335      1340      1346      1343      1336      1335      1337      1338
      1336      1335      1337      1339      1336      1335      1340      1341
      1336      1335      1340      1342      1336      1335      1340      1346
      1337      1335      1340      1341      1337      1335      1340      1342
      1337      1335      1340      1346      1338      1337      1335      1340
      1339      1337      1335      1340      1340      1346      1343      1344
      1340      1346      1343      1345      1340      1346      1343      1347
      1341      1340      1346      1343      1342      1340      1346      1343
      1343      1347      1348      1349      1343      1347      1348      1350
      1343      1347      1348      1351      1344      1343      1347      1348
      1345      1343      1347      1348      1346      1343      1347      1348
      1347      1348      1351      1352      1347      1348      1351      1353
      1347      1348      1351      1359      1348      1351      1353      1354
      1348      1351      1359      1360      1348      1351      1359      1361
      1348      1351      1359      1362      1349      1348      1351      1352
      1349      1348      1351      1353      1349      1348      1351      1359
      1350      1348      1351      1352      1350      1348      1351      1353
      1350      1348      1351      1359      1351      1353      1354      1355
      1351      1353      1354      1356      1351      1359      1362      1363
      1352      1351      1353      1354      1352      1351      1359      1360
      1352      1351      1359      1361      1352      1351      1359      1362
      1353      1351      1359      1360      1353      1351      1359      1361
      1353      1351      1359      1362      1353      1354      1356      1357
      1353      1354      1356      1358      1353      1354      1356      1368
      1354      1353      1351      1359      1354      1356      1368      1369
      1354      1356      1368      1370      1354      1356      1368      1371
      1355      1354      1356      1357      1355      1354      1356      1358
      1355      1354      1356      1368      1356      1368      1371      1372
      1356      1368      1371      1373      1356      1368      1371      1374
      1357      1356      1368      1369      1357      1356      1368      1370
      1357      1356      1368      1371      1358      1356      1368      1369
      1358      1356      1368      1370      1358      1356      1368      1371
      1359      1362      1363      1364      1359      1362      1363      1365
      1360      1359      1362      1363      1361      1359      1362      1363
      1362      1363      1365      1366      1362      1363      1365      1367
      1362      1363      1365      1415      1363      1365      1415      1416
      1363      1365      1415      1417      1363      1365      1415      1418
      1364      1363      1365      1366      1364      1363      1365      1367
      1364      1363      1365      1415      1365      1415      1418      1419
      1365      1415      1418      1420      1365      1415      1418      1421
      1366      1365      1415      1416      1366      1365      1415      1417
      1366      1365      1415      1418      1367      1365      1415      1416
      1367      1365      1415      1417      1367      1365      1415      1418
      1368      1371      1374      1375      1368      1371      1374      1376
      1369      1368      1371      1372      1369      1368      1371      1373
      1369      1368      1371      1374      1370      1368      1371      1372
      1370      1368      1371      1373      1370      1368      1371      1374
      1371      1374      1376      1377      1371      1374      1376      1378
      1372      1371      1374      1375      1372      1371      1374      1376
      1373      1371      1374      1375      1373      1371      1374      1376
      1374      1376      1378      1379      1374      1376      1378      1380
      1374      1376      1378      1381      1375      1374      1376      1377
      1375      1374      1376      1378      1376      1378      1381      1382
      1376      1378      1381      1383      1377      1376      1378      1379
      1377      1376      1378      1380      1377      1376      1378      1381
      1378      1381      1383      1384      1378      1381      1383      1385
      1379      1378      1381      1382      1379      1378      1381      1383
      1380      1378      1381      1382      1380      1378      1381      1383
      1381      1383      1385      1386      1381      1383      1385      1387
      1381      1383      1385      1388      1382      1381      1383      1384
      1382      1381      1383      1385      1383      1385      1388      1389
      1383      1385      1388      1390      1384      1383      1385      1386
      1384      1383      1385      1387      1384      1383      1385      1388
      1385      1388      1390      1391      1385      1388      1390      1392
      1386      1385      1388      1389      1386      1385      1388      1390
      1387      1385      1388      1389      1387      1385      1388      1390
      1388      1390      1392      1393      1388      1390      1392      1394
      1388      1390      1392      1395      1389      1388      1390      1391
      1389      1388      1390      1392      1390      1392      1395      1396
      1390      1392      1395      1397      1391      1390      1392      1393
      1391      1390      1392      1394      1391      1390      1392      1395
      1392      1395      1397      1398      1392      1395      1397      1399
      1393      1392      1395      1396      1393      1392      1395      1397
      1394      1392      1395      1396      1394      1392      1395      1397
      1395      1397      1399      1400      1395      1397      1399      1401
      1395      1397      1399      1402      1396      1395      1397      1398
      1396      1395      1397      1399      1397      1399      1402      1403
      1397      1399      1402      1404      1397      1399      1402      1405
      1398      1397      1399      1400      1398      1397      1399      1401
      1398      1397      1399      1402      1399      1402      1405      1406
      1399      1402      1405      1407      1399      1402      1405      1408
      1400      1399      1402      1403      1400      1399      1402      1404
      1400      1399      1402      1405      1401      1399      1402      1403
      1401      1399      1402      1404      1401      1399      1402      1405
      1402      1405      1408      1409      1402      1405      1408      1410
      1402      1405      1408      1411      1403      1402      1405      1406
      1403      1402      1405      1407      1403      1402      1405      1408
      1404      1402      1405      1406      1404      1402      1405      1407
      1404      1402      1405      1408      1405      1408      1411      1412
      1405      1408      1411      1413      1405      1408      1411      1414
      1406      1405      1408      1409      1406      1405      1408      1410
      1406      1405      1408      1411      1407      1405      1408      1409
      1407      1405      1408      1410      1407      1405      1408      1411
      1409      1408      1411      1412      1409      1408      1411      1413
      1409      1408      1411      1414      1410      1408      1411      1412
      1410      1408      1411      1413      1410      1408      1411      1414
      1415      1418      1421      1422      1415      1418      1421      1423
      1415      1418      1421      1424      1416      1415      1418      1419
      1416      1415      1418      1420      1416      1415      1418      1421
      1417      1415      1418      1419      1417      1415      1418      1420
      1417      1415      1418      1421      1418      1421      1424      1425
      1418      1421      1424      1426      1418      1421      1424      1427
      1419      1418      1421      1422      1419      1418      1421      1423
      1419      1418      1421      1424      1420      1418      1421      1422
      1420      1418      1421      1423      1420      1418      1421      1424
      1421      1424      1427      1428      1421      1424      1427      1429
      1421      1424      1427      1430      1422      1421      1424      1425
      1422      1421      1424      1426      1422      1421      1424      1427
      1423      1421      1424      1425      1423      1421      1424      1426
      1423      1421      1424      1427      1424      1427      1430      1431
      1424      1427      1430      1432      1424      1427      1430      1433
      1425      1424      1427      1428      1425      1424      1427      1429
      1425      1424      1427      1430      1426      1424      1427      1428
      1426      1424      1427      1429      1426      1424      1427      1430
      1427      1430      1433      1434      1427      1430      1433      1435
      1427      1430      1433      1436      1428      1427      1430      1431
      1428      1427      1430      1432      1428      1427      1430      1433
      1429      1427      1430      1431      1429      1427      1430      1432
      1429      1427      1430      1433      1430      1433      1436      1437
      1430      1433      1436      1438      1430      1433      1436      1439
      1431      1430      1433      1434      1431      1430      1433      1435
      1431      1430      1433      1436      1432      1430      1433      1434
      1432      1430      1433      1435      1432      1430      1433      1436
      1433      1436      1439      1440      1433      1436      1439      1441
      1433      1436      1439      1442      1434      1433      1436      1437
      1434      1433      1436      1438      1434      1433      1436      1439
      1435      1433      1436      1437      1435      1433      1436      1438
      1435      1433      1436      1439      1436      1439      1442      1443
      1436      1439      1442      1444      1436      1439      1442      1445
      1437      1436      1439      1440      1437      1436      1439      1441
      1437      1436      1439      1442      1438      1436      1439      1440
      1438      1436      1439      1441      1438      1436      1439      1442
      1439      1442      1445      1446      1439      1442      1445      1447
      1439      1442      1445      1448      1440      1439      1442      1443
      1440      1439      1442      1444      1440      1439      1442      1445
      1441      1439      1442      1443      1441      1439      1442      1444
      1441      1439      1442      1445      1442      1445      1448      1449
      1442      1445      1448      1450      1442      1445      1448      1451
      1443      1442      1445      1446      1443      1442      1445      1447
      1443      1442      1445      1448      1444      1442      1445      1446
      1444      1442      1445      1447      1444      1442      1445      1448
      1445      1448      1451      1452      1445      1448      1451      1453
      1445      1448      1451      1454      1446      1445      1448      1449
      1446      1445      1448      1450      1446      1445      1448      1451
      1447      1445      1448      1449      1447      1445      1448      1450
      1447      1445      1448      1451      1448      1451      1454      1455
      1448      1451      1454      1456      1448      1451      1454      1457
      1449      1448      1451      1452      1449      1448      1451      1453
      1449      1448      1451      1454      1450      1448      1451      1452
      1450      1448      1451      1453      1450      1448      1451      1454
      1451      1454      1457      1458      1451      1454      1457      1459
      1451      1454      1457      1460      1452      1451      1454      1455
      1452      1451      1454      1456      1452      1451      1454      1457
      1453      1451      1454      1455      1453      1451      1454      1456
      1453      1451      1454      1457      1454      1457      1460      1461
      1454      1457      1460      1462      1454      1457      1460      1463
      1455      1454      1457      1458      1455      1454      1457      1459
      1455      1454      1457      1460      1456      1454      1457      1458
      1456      1454      1457      1459      1456      1454      1457      1460
      1458      1457      1460      1461      1458      1457      1460      1462
      1458      1457      1460      1463      1459      1457      1460      1461
      1459      1457      1460      1462      1459      1457      1460      1463
      7591      7595      7598      7599      7591      7595      7598      7600
      7591      7595      7598      7604      7592      7591      7595      7596
      7592      7591      7595      7597      7592      7591      7595      7598
      7593      7591      7595      7596      7593      7591      7595      7597
      7593      7591      7595      7598      7594      7591      7595      7596
      7594      7591      7595      7597      7594      7591      7595      7598
      7595      7598      7604      7601      7596      7595      7598      7599
      7596      7595      7598      7600      7596      7595      7598      7604
      7597      7595      7598      7599      7597      7595      7598      7600
      7597      7595      7598      7604      7598      7604      7601      7602
      7598      7604      7601      7603      7598      7604      7601      7605
      7599      7598      7604      7601      7600      7598      7604      7601
      7601      7605      7606      7607      7601      7605      7606      7608
      7601      7605      7606      7609      7602      7601      7605      7606
      7603      7601      7605      7606      7604      7601      7605      7606
      7605      7606      7609      7610      7605      7606      7609      7611
      7605      7606      7609      7617      7606      7609      7611      7612
      7606      7609      7617      7618      7606      7609      7617      7619
      7606      7609      7617      7620      7607      7606      7609      7610
      7607      7606      7609      7611      7607      7606      7609      7617
      7608      7606      7609      7610      7608      7606      7609      7611
      7608      7606      7609      7617      7609      7611      7612      7613
      7609      7611      7612      7614      7609      7617      7620      7621
      7610      7609      7611      7612      7610      7609      7617      7618
      7610      7609      7617      7619      7610      7609      7617      7620
      7611      7609      7617      7618      7611      7609      7617      7619
      7611      7609      7617      7620      7611      7612      7614      7615
      7611      7612      7614      7616      7611      7612      7614      7626
      7612      7611      7609      7617      7612      7614      7626      7627
      7612      7614      7626      7628      7612      7614      7626      7629
      7613      7612      7614      7615      7613      7612      7614      7616
      7613      7612      7614      7626      7614      7626      7629      7630
      7614      7626      7629      7631      7614      7626      7629      7632
      7615      7614      7626      7627      7615      7614      7626      7628
      7615      7614      7626      7629      7616      7614      7626      7627
      7616      7614      7626      7628      7616      7614      7626      7629
      7617      7620      7621      7622      7617      7620      7621      7623
      7618      7617      7620      7621      7619      7617      7620      7621
      7620      7621      7623      7624      7620      7621      7623      7625
      7620      7621      7623      7673      7621      7623      7673      7674
      7621      7623      7673      7675      7621      7623      7673      7676
      7622      7621      7623      7624      7622      7621      7623      7625
      7622      7621      7623      7673      7623      7673      7676      7677
      7623      7673      7676      7678      7623      7673      7676      7679
      7624      7623      7673      7674      7624      7623      7673      7675
      7624      7623      7673      7676      7625      7623      7673      7674
      7625      7623      7673      7675      7625      7623      7673      7676
      7626      7629      7632      7633      7626      7629      7632      7634
      7626      7629      7632      7635      7627      7626      7629      7630
      7627      7626      7629      7631      7627      7626      7629      7632
      7628      7626      7629      7630      7628      7626      7629      7631
      7628      7626      7629      7632      7629      7632      7635      7636
      7629      7632      7635      7637      7629      7632      7635      7638
      7630      7629      7632      7633      7630      7629      7632      7634
      7630      7629      7632      7635      7631      7629      7632      7633
      7631      7629      7632      7634      7631      7629      7632      7635
      7632      7635      7638      7639      7632      7635      7638      7640
      7632      7635      7638      7641      7633      7632      7635      7636
      7633      7632      7635      7637      7633      7632      7635      7638
      7634      7632      7635      7636      7634      7632      7635      7637
      7634      7632      7635      7638      7635      7638      7641      7642
      7635      7638      7641      7643      7635      7638      7641      7644
      7636      7635      7638      7639      7636      7635      7638      7640
      7636      7635      7638      7641      7637      7635      7638      7639
      7637      7635      7638      7640      7637      7635      7638      7641
      7638      7641      7644      7645      7638      7641      7644      7646
      7639      7638      7641      7642      7639      7638      7641      7643
      7639      7638      7641      7644      7640      7638      7641      7642
      7640      7638      7641      7643      7640      7638      7641      7644
      7641      7644      7646      7647      7641      7644      7646      7648
      7642      7641      7644      7645      7642      7641      7644      7646
      7643      7641      7644      7645      7643      7641      7644      7646
      7644      7646      7648      7649      7644      7646      7648      7650
      7644      7646      7648      7651      7645      7644      7646      7647
      7645      7644      7646      7648      7646      7648      7651      7652
      7646      7648      7651      7653      7646      7648      7651      7654
      7647      7646      7648      7649      7647      7646      7648      7650
      7647      7646      7648      7651      7648      7651      7654      7655
      7648      7651      7654      7656      7648      7651      7654      7657
      7649      7648      7651      7652      7649      7648      7651      7653
      7649      7648      7651      7654      7650      7648      7651      7652
      7650      7648      7651      7653      7650      7648      7651      7654
      7651      7654      7657      7658      7651      7654      7657      7659
      7651      7654      7657      7660      7652      7651      7654      7655
      7652      7651      7654      7656      7652      7651      7654      7657
      7653      7651      7654      7655      7653      7651      7654      7656
      7653      7651      7654      7657      7654      7657      7660      7661
      7654      7657      7660      7662      7654      7657      7660      7663
      7655      7654      7657      7658      7655      7654      7657      7659
      7655      7654      7657      7660      7656      7654      7657      7658
      7656      7654      7657      7659      7656      7654      7657      7660
      7657      7660      7663      7664      7657      7660      7663      7665
      7657      7660      7663      7666      7658      7657      7660      7661
      7658      7657      7660      7662      7658      7657      7660      7663
      7659      7657      7660      7661      7659      7657      7660      7662
      7659      7657      7660      7663      7660      7663      7666      7667
      7660      7663      7666      7668      7660      7663      7666      7669
      7661      7660      7663      7664      7661      7660      7663      7665
      7661      7660      7663      7666      7662      7660      7663      7664
      7662      7660      7663      7665      7662      7660      7663      7666
      7663      7666      7669      7670      7663      7666      7669      7671
      7663      7666      7669      7672      7664      7663      7666      7667
      7664      7663      7666      7668      7664      7663      7666      7669
      7665      7663      7666      7667      7665      7663      7666      7668
      7665      7663      7666      7669      7667      7666      7669      7670
      7667      7666      7669      7671      7667      7666      7669      7672
      7668      7666      7669      7670      7668      7666      7669      7671
      7668      7666      7669      7672      7673      7676      7679      7680
      7673      7676      7679      7681      7673      7676      7679      7682
      7674      7673      7676      7677      7674      7673      7676      7678
      7674      7673      7676      7679      7675      7673      7676      7677
      7675      7673      7676      7678      7675      7673      7676      7679
      7676      7679      7682      7683      7676      7679      7682      7684
      7676      7679      7682      7685      7677      7676      7679      7680
      7677      7676      7679      7681      7677      7676      7679      7682
      7678      7676      7679      7680      7678      7676      7679      7681
      7678      7676      7679      7682      7679      7682      7685      7686
      7679      7682      7685      7687      7679      7682      7685      7688
      7680      7679      7682      7683      7680      7679      7682      7684
      7680      7679      7682      7685      7681      7679      7682      7683
      7681      7679      7682      7684      7681      7679      7682      7685
      7682      7685      7688      7689      7682      7685      7688      7690
      7682      7685      7688      7691      7683      7682      7685      7686
      7683      7682      7685      7687      7683      7682      7685      7688
      7684      7682      7685      7686      7684      7682      7685      7687
      7684      7682      7685      7688      7685      7688      7691      7692
      7685      7688      7691      7693      7685      7688      7691      7694
      7686      7685      7688      7689      7686      7685      7688      7690
      7686      7685      7688      7691      7687      7685      7688      7689
      7687      7685      7688      7690      7687      7685      7688      7691
      7688      7691      7694      7695      7688      7691      7694      7696
      7688      7691      7694      7697      7689      7688      7691      7692
      7689      7688      7691      7693      7689      7688      7691      7694
      7690      7688      7691      7692      7690      7688      7691      7693
      7690      7688      7691      7694      7691      7694      7697      7698
      7691      7694      7697      7699      7691      7694      7697      7700
      7692      7691      7694      7695      7692      7691      7694      7696
      7692      7691      7694      7697      7693      7691      7694      7695
      7693      7691      7694      7696      7693      7691      7694      7697
      7694      7697      7700      7701      7694      7697      7700      7702
      7694      7697      7700      7703      7695      7694      7697      7698
      7695      7694      7697      7699      7695      7694      7697      7700
      7696      7694      7697      7698      7696      7694      7697      7699
      7696      7694      7697      7700      7697      7700      7703      7704
      7697      7700      7703      7705      7697      7700      7703      7706
      7698      7697      7700      7701      7698      7697      7700      7702
      7698      7697      7700      7703      7699      7697      7700      7701
      7699      7697      7700      7702      7699      7697      7700      7703
      7700      7703      7706      7707      7700      7703      7706      7708
      7700      7703      7706      7709      7701      7700      7703      7704
      7701      7700      7703      7705      7701      7700      7703      7706
      7702      7700      7703      7704      7702      7700      7703      7705
      7702      7700      7703      7706      7703      7706      7709      7710
      7703      7706      7709      7711      7703      7706      7709      7712
      7704      7703      7706      7707      7704      7703      7706      7708
      7704      7703      7706      7709      7705      7703      7706      7707
      7705      7703      7706      7708      7705      7703      7706      7709
      7706      7709      7712      7713      7706      7709      7712      7714
      7706      7709      7712      7715      7707      7706      7709      7710
      7707      7706      7709      7711      7707      7706      7709      7712
      7708      7706      7709      7710      7708      7706      7709      7711
      7708      7706      7709      7712      7709      7712      7715      7716
      7709      7712      7715      7717      7709      7712      7715      7718
      7710      7709      7712      7713      7710      7709      7712      7714
      7710      7709      7712      7715      7711      7709      7712      7713
      7711      7709      7712      7714      7711      7709      7712      7715
      7712      7715      7718      7719      7712      7715      7718      7720
      7712      7715      7718      7721      7713      7712      7715      7716
      7713      7712      7715      7717      7713      7712      7715      7718
      7714      7712      7715      7716      7714      7712      7715      7717
      7714      7712      7715      7718      7716      7715      7718      7719
      7716      7715      7718      7720      7716      7715      7718      7721
      7717      7715      7718      7719      7717      7715      7718      7720
      7717      7715      7718      7721      4807      4811      4814      4815
      4807      4811      4814      4845      4807      4853      4850      4845
      4807      4853      4850      4851      4807      4853      4850      4852
      4808      4807      4809      4810      4808      4807      4811      4812
      4808      4807      4811      4813      4808      4807      4811      4814
      4808      4807      4853      4850      4808      4807      4853      4854
      4808      4807      4853      4855      4809      4807      4811      4812
      4809      4807      4811      4813      4809      4807      4811      4814
      4809      4807      4853      4850      4809      4807      4853      4854
      4809      4807      4853      4855      4810      4809      4807      4811
      4810      4809      4807      4853      4811      4807      4853      4850
      4811      4807      4853      4854      4811      4807      4853      4855
      4811      4814      4815      4816      4811      4814      4815      4817
      4811      4814      4845      4843      4811      4814      4845      4846
      4811      4814      4845      4850      4812      4811      4807      4853
      4812      4811      4814      4815      4812      4811      4814      4845
      4813      4811      4807      4853      4813      4811      4814      4815
      4813      4811      4814      4845      4814      4811      4807      4853
      4814      4815      4817      4818      4814      4815      4817      4819
      4814      4815      4817      4820      4814      4845      4843      4820
      4814      4845      4843      4840      4814      4845      4843      4844
      4814      4845      4846      4847      4814      4845      4846      4848
      4814      4845      4846      4849      4814      4845      4850      4851
      4814      4845      4850      4852      4814      4845      4850      4853
      4815      4814      4845      4843      4815      4814      4845      4846
      4815      4814      4845      4850      4815      4817      4820      4821
      4815      4817      4820      4822      4815      4817      4820      4843
      4816      4815      4814      4845      4816      4815      4817      4818
      4816      4815      4817      4819      4816      4815      4817      4820
      4817      4815      4814      4845      4817      4820      4822      4823
      4817      4820      4822      4824      4817      4820      4822      4832
      4817      4820      4843      4840      4817      4820      4843      4844
      4817      4820      4843      4845      4818      4817      4820      4821
      4818      4817      4820      4822      4818      4817      4820      4843
      4819      4817      4820      4821      4819      4817      4820      4822
      4819      4817      4820      4843      4820      4822      4824      4825
      4820      4822      4824      4826      4820      4822      4824      4827
      4820      4822      4832      4830      4820      4822      4832      4833
      4820      4822      4832      4837      4820      4843      4840      4837
      4820      4843      4840      4841      4820      4843      4840      4842
      4820      4843      4845      4846      4820      4843      4845      4850
      4821      4820      4822      4823      4821      4820      4822      4824
      4821      4820      4822      4832      4821      4820      4843      4840
      4821      4820      4843      4844      4821      4820      4843      4845
      4822      4820      4843      4840      4822      4820      4843      4844
      4822      4820      4843      4845      4822      4824      4827      4828
      4822      4824      4827      4829      4822      4824      4827      4830
      4822      4832      4830      4827      4822      4832      4830      4831
      4822      4832      4830      4856      4822      4832      4833      4834
      4822      4832      4833      4835      4822      4832      4833      4836
      4822      4832      4837      4838      4822      4832      4837      4839
      4822      4832      4837      4840      4823      4822      4820      4843
      4823      4822      4824      4825      4823      4822      4824      4826
      4823      4822      4824      4827      4823      4822      4832      4830
      4823      4822      4832      4833      4823      4822      4832      4837
      4824      4822      4820      4843      4824      4822      4832      4830
      4824      4822      4832      4833      4824      4822      4832      4837
      4824      4827      4830      4831      4824      4827      4830      4832
      4824      4827      4830      4856      4825      4824      4822      4832
      4825      4824      4827      4828      4825      4824      4827      4829
      4825      4824      4827      4830      4826      4824      4822      4832
      4826      4824      4827      4828      4826      4824      4827      4829
      4826      4824      4827      4830      4827      4824      4822      4832
      4827      4830      4832      4833      4827      4830      4832      4837
      4827      4830      4856      4857      4827      4830      4856      4858
      4827      4830      4856      4862      4828      4827      4830      4831
      4828      4827      4830      4832      4828      4827      4830      4856
      4829      4827      4830      4831      4829      4827      4830      4832
      4829      4827      4830      4856      4830      4832      4833      4834
      4830      4832      4833      4835      4830      4832      4833      4836
      4830      4832      4837      4838      4830      4832      4837      4839
      4830      4832      4837      4840      4830      4856      4858      4859
      4830      4856      4858      4860      4830      4856      4858      4861
      4830      4856      4862      4863      4830      4856      4862      4864
      4830      4856      4862      4865      4831      4830      4832      4833
      4831      4830      4832      4837      4831      4830      4856      4857
      4831      4830      4856      4858      4831      4830      4856      4862
      4832      4822      4820      4843      4832      4830      4856      4857
      4832      4830      4856      4858      4832      4830      4856      4862
      4832      4837      4840      4841      4832      4837      4840      4842
      4832      4837      4840      4843      4833      4832      4830      4856
      4833      4832      4837      4838      4833      4832      4837      4839
      4833      4832      4837      4840      4834      4833      4832      4837
      4835      4833      4832      4837      4836      4833      4832      4837
      4837      4832      4830      4856      4837      4840      4843      4844
      4837      4840      4843      4845      4838      4837      4840      4841
      4838      4837      4840      4842      4838      4837      4840      4843
      4839      4837      4840      4841      4839      4837      4840      4842
      4839      4837      4840      4843      4840      4843      4845      4846
      4840      4843      4845      4850      4841      4840      4843      4844
      4841      4840      4843      4845      4842      4840      4843      4844
      4842      4840      4843      4845      4843      4845      4846      4847
      4843      4845      4846      4848      4843      4845      4846      4849
      4843      4845      4850      4851      4843      4845      4850      4852
      4843      4845      4850      4853      4844      4843      4845      4846
      4844      4843      4845      4850      4845      4850      4853      4854
      4845      4850      4853      4855      4846      4845      4850      4851
      4846      4845      4850      4852      4846      4845      4850      4853
      4847      4846      4845      4850      4848      4846      4845      4850
      4849      4846      4845      4850      4851      4850      4853      4854
      4851      4850      4853      4855      4852      4850      4853      4854
      4852      4850      4853      4855      4856      4862      4865      4866
      4856      4862      4865      4867      4856      4862      4865      4868
      4857      4856      4858      4859      4857      4856      4858      4860
      4857      4856      4858      4861      4857      4856      4862      4863
      4857      4856      4862      4864      4857      4856      4862      4865
      4858      4856      4862      4863      4858      4856      4862      4864
      4858      4856      4862      4865      4859      4858      4856      4862
      4860      4858      4856      4862      4861      4858      4856      4862
      4862      4865      4868      4869      4862      4865      4868      4870
      4862      4865      4868      4871      4863      4862      4865      4866
      4863      4862      4865      4867      4863      4862      4865      4868
      4864      4862      4865      4866      4864      4862      4865      4867
      4864      4862      4865      4868      4865      4868      4871      4872
      4865      4868      4871      4873      4865      4868      4871      4877
      4866      4865      4868      4869      4866      4865      4868      4870
      4866      4865      4868      4871      4867      4865      4868      4869
      4867      4865      4868      4870      4867      4865      4868      4871
      4868      4871      4873      4874      4868      4871      4873      4875
      4868      4871      4873      4876      4868      4871      4877      4878
      4868      4871      4877      4879      4868      4871      4877      4880
      4869      4868      4871      4872      4869      4868      4871      4873
      4869      4868      4871      4877      4870      4868      4871      4872
      4870      4868      4871      4873      4870      4868      4871      4877
      4872      4871      4873      4874      4872      4871      4873      4875
      4872      4871      4873      4876      4872      4871      4877      4878
      4872      4871      4877      4879      4872      4871      4877      4880
      4873      4871      4877      4878      4873      4871      4877      4879
      4873      4871      4877      4880      4874      4873      4871      4877
      4875      4873      4871      4877      4876      4873      4871      4877
      4881      4885      4888      4889      4881      4885      4888      4919
      4881      4927      4924      4919      4881      4927      4924      4925
      4881      4927      4924      4926      4882      4881      4883      4884
      4882      4881      4885      4886      4882      4881      4885      4887
      4882      4881      4885      4888      4882      4881      4927      4924
      4882      4881      4927      4928      4882      4881      4927      4929
      4883      4881      4885      4886      4883      4881      4885      4887
      4883      4881      4885      4888      4883      4881      4927      4924
      4883      4881      4927      4928      4883      4881      4927      4929
      4884      4883      4881      4885      4884      4883      4881      4927
      4885      4881      4927      4924      4885      4881      4927      4928
      4885      4881      4927      4929      4885      4888      4889      4890
      4885      4888      4889      4891      4885      4888      4919      4917
      4885      4888      4919      4920      4885      4888      4919      4924
      4886      4885      4881      4927      4886      4885      4888      4889
      4886      4885      4888      4919      4887      4885      4881      4927
      4887      4885      4888      4889      4887      4885      4888      4919
      4888      4885      4881      4927      4888      4889      4891      4892
      4888      4889      4891      4893      4888      4889      4891      4894
      4888      4919      4917      4894      4888      4919      4917      4914
      4888      4919      4917      4918      4888      4919      4920      4921
      4888      4919      4920      4922      4888      4919      4920      4923
      4888      4919      4924      4925      4888      4919      4924      4926
      4888      4919      4924      4927      4889      4888      4919      4917
      4889      4888      4919      4920      4889      4888      4919      4924
      4889      4891      4894      4895      4889      4891      4894      4896
      4889      4891      4894      4917      4890      4889      4888      4919
      4890      4889      4891      4892      4890      4889      4891      4893
      4890      4889      4891      4894      4891      4889      4888      4919
      4891      4894      4896      4897      4891      4894      4896      4898
      4891      4894      4896      4906      4891      4894      4917      4914
      4891      4894      4917      4918      4891      4894      4917      4919
      4892      4891      4894      4895      4892      4891      4894      4896
      4892      4891      4894      4917      4893      4891      4894      4895
      4893      4891      4894      4896      4893      4891      4894      4917
      4894      4896      4898      4899      4894      4896      4898      4900
      4894      4896      4898      4901      4894      4896      4906      4904
      4894      4896      4906      4907      4894      4896      4906      4911
      4894      4917      4914      4911      4894      4917      4914      4915
      4894      4917      4914      4916      4894      4917      4919      4920
      4894      4917      4919      4924      4895      4894      4896      4897
      4895      4894      4896      4898      4895      4894      4896      4906
      4895      4894      4917      4914      4895      4894      4917      4918
      4895      4894      4917      4919      4896      4894      4917      4914
      4896      4894      4917      4918      4896      4894      4917      4919
      4896      4898      4901      4902      4896      4898      4901      4903
      4896      4898      4901      4904      4896      4906      4904      4901
      4896      4906      4904      4905      4896      4906      4904      4930
      4896      4906      4907      4908      4896      4906      4907      4909
      4896      4906      4907      4910      4896      4906      4911      4912
      4896      4906      4911      4913      4896      4906      4911      4914
      4897      4896      4894      4917      4897      4896      4898      4899
      4897      4896      4898      4900      4897      4896      4898      4901
      4897      4896      4906      4904      4897      4896      4906      4907
      4897      4896      4906      4911      4898      4896      4894      4917
      4898      4896      4906      4904      4898      4896      4906      4907
      4898      4896      4906      4911      4898      4901      4904      4905
      4898      4901      4904      4906      4898      4901      4904      4930
      4899      4898      4896      4906      4899      4898      4901      4902
      4899      4898      4901      4903      4899      4898      4901      4904
      4900      4898      4896      4906      4900      4898      4901      4902
      4900      4898      4901      4903      4900      4898      4901      4904
      4901      4898      4896      4906      4901      4904      4906      4907
      4901      4904      4906      4911      4901      4904      4930      4931
      4901      4904      4930      4932      4901      4904      4930      4936
      4902      4901      4904      4905      4902      4901      4904      4906
      4902      4901      4904      4930      4903      4901      4904      4905
      4903      4901      4904      4906      4903      4901      4904      4930
      4904      4906      4907      4908      4904      4906      4907      4909
      4904      4906      4907      4910      4904      4906      4911      4912
      4904      4906      4911      4913      4904      4906      4911      4914
      4904      4930      4932      4933      4904      4930      4932      4934
      4904      4930      4932      4935      4904      4930      4936      4937
      4904      4930      4936      4938      4904      4930      4936      4939
      4905      4904      4906      4907      4905      4904      4906      4911
      4905      4904      4930      4931      4905      4904      4930      4932
      4905      4904      4930      4936      4906      4896      4894      4917
      4906      4904      4930      4931      4906      4904      4930      4932
      4906      4904      4930      4936      4906      4911      4914      4915
      4906      4911      4914      4916      4906      4911      4914      4917
      4907      4906      4904      4930      4907      4906      4911      4912
      4907      4906      4911      4913      4907      4906      4911      4914
      4908      4907      4906      4911      4909      4907      4906      4911
      4910      4907      4906      4911      4911      4906      4904      4930
      4911      4914      4917      4918      4911      4914      4917      4919
      4912      4911      4914      4915      4912      4911      4914      4916
      4912      4911      4914      4917      4913      4911      4914      4915
      4913      4911      4914      4916      4913      4911      4914      4917
      4914      4917      4919      4920      4914      4917      4919      4924
      4915      4914      4917      4918      4915      4914      4917      4919
      4916      4914      4917      4918      4916      4914      4917      4919
      4917      4919      4920      4921      4917      4919      4920      4922
      4917      4919      4920      4923      4917      4919      4924      4925
      4917      4919      4924      4926      4917      4919      4924      4927
      4918      4917      4919      4920      4918      4917      4919      4924
      4919      4924      4927      4928      4919      4924      4927      4929
      4920      4919      4924      4925      4920      4919      4924      4926
      4920      4919      4924      4927      4921      4920      4919      4924
      4922      4920      4919      4924      4923      4920      4919      4924
      4925      4924      4927      4928      4925      4924      4927      4929
      4926      4924      4927      4928      4926      4924      4927      4929
      4930      4936      4939      4940      4930      4936      4939      4941
      4930      4936      4939      4942      4931      4930      4932      4933
      4931      4930      4932      4934      4931      4930      4932      4935
      4931      4930      4936      4937      4931      4930      4936      4938
      4931      4930      4936      4939      4932      4930      4936      4937
      4932      4930      4936      4938      4932      4930      4936      4939
      4933      4932      4930      4936      4934      4932      4930      4936
      4935      4932      4930      4936      4936      4939      4942      4943
      4936      4939      4942      4944      4936      4939      4942      4945
      4937      4936      4939      4940      4937      4936      4939      4941
      4937      4936      4939      4942      4938      4936      4939      4940
      4938      4936      4939      4941      4938      4936      4939      4942
      4939      4942      4945      4946      4939      4942      4945      4947
      4939      4942      4945      4951      4940      4939      4942      4943
      4940      4939      4942      4944      4940      4939      4942      4945
      4941      4939      4942      4943      4941      4939      4942      4944
      4941      4939      4942      4945      4942      4945      4947      4948
      4942      4945      4947      4949      4942      4945      4947      4950
      4942      4945      4951      4952      4942      4945      4951      4953
      4942      4945      4951      4954      4943      4942      4945      4946
      4943      4942      4945      4947      4943      4942      4945      4951
      4944      4942      4945      4946      4944      4942      4945      4947
      4944      4942      4945      4951      4946      4945      4947      4948
      4946      4945      4947      4949      4946      4945      4947      4950
      4946      4945      4951      4952      4946      4945      4951      4953
      4946      4945      4951      4954      4947      4945      4951      4952
      4947      4945      4951      4953      4947      4945      4951      4954
      4948      4947      4945      4951      4949      4947      4945      4951
      4950      4947      4945      4951     21967     21971     21973     21974
     21967     21971     21975     21976     21967     21971     21975     21977
     21967     21971     21975     21979     21967     21987     21983     21979
     21967     21987     21983     21984     21967     21987     21983     21985
     21967     21987     21992     21989     21968     21967     21969     21970
     21968     21967     21971     21972     21968     21967     21971     21973
     21968     21967     21971     21975     21968     21967     21987     21983
     21968     21967     21987     21988     21968     21967     21987     21992
     21969     21967     21971     21972     21969     21967     21971     21973
     21969     21967     21971     21975     21969     21967     21987     21983
     21969     21967     21987     21988     21969     21967     21987     21992
     21970     21969     21967     21971     21970     21969     21967     21987
     21971     21967     21987     21983     21971     21967     21987     21988
     21971     21967     21987     21992     21971     21975     21977     21978
     21971     21975     21979     21980     21971     21975     21979     21981
     21971     21975     21979     21983     21972     21971     21967     21987
     21972     21971     21973     21974     21972     21971     21975     21976
     21972     21971     21975     21977     21972     21971     21975     21979
     21973     21971     21967     21987     21973     21971     21975     21976
     21973     21971     21975     21977     21973     21971     21975     21979
     21974     21973     21971     21975     21975     21971     21967     21987
     21975     21979     21981     21982     21975     21979     21983     21984
     21975     21979     21983     21985     21975     21979     21983     21987
     21976     21975     21977     21978     21976     21975     21979     21980
     21976     21975     21979     21981     21976     21975     21979     21983
     21977     21975     21979     21980     21977     21975     21979     21981
     21977     21975     21979     21983     21978     21977     21975     21979
     21979     21983     21985     21986     21979     21983     21987     21988
     21979     21983     21987     21992     21980     21979     21981     21982
     21980     21979     21983     21984     21980     21979     21983     21985
     21980     21979     21983     21987     21981     21979     21983     21984
     21981     21979     21983     21985     21981     21979     21983     21987
     21982     21981     21979     21983     21983     21987     21992     21989
     21984     21983     21985     21986     21984     21983     21987     21988
     21984     21983     21987     21992     21985     21983     21987     21988
     21985     21983     21987     21992     21986     21985     21983     21987
     21987     21992     21989     21990     21987     21992     21989     21991
     21987     21992     21989     21993     21988     21987     21992     21989
     21989     21993     21994     21995     21989     21993     21994     21996
     21989     21993     21994     21997     21990     21989     21993     21994
     21991     21989     21993     21994     21992     21989     21993     21994
     21993     21994     21997     21998     21993     21994     21997     21999
     21993     21994     21997     22005     21994     21997     21999     22000
     21994     21997     22005     22006     21994     21997     22005     22007
     21994     21997     22005     22008     21995     21994     21997     21998
     21995     21994     21997     21999     21995     21994     21997     22005
     21996     21994     21997     21998     21996     21994     21997     21999
     21996     21994     21997     22005     21997     21999     22000     22001
     21997     21999     22000     22002     21997     22005     22008     22009
     21998     21997     21999     22000     21998     21997     22005     22006
     21998     21997     22005     22007     21998     21997     22005     22008
     21999     21997     22005     22006     21999     21997     22005     22007
     21999     21997     22005     22008     21999     22000     22002     22003
     21999     22000     22002     22004     21999     22000     22002     22014
     22000     21999     21997     22005     22000     22002     22014     22015
     22000     22002     22014     22016     22000     22002     22014     22017
     22001     22000     22002     22003     22001     22000     22002     22004
     22001     22000     22002     22014     22002     22014     22017     22018
     22002     22014     22017     22019     22002     22014     22017     22020
     22003     22002     22014     22015     22003     22002     22014     22016
     22003     22002     22014     22017     22004     22002     22014     22015
     22004     22002     22014     22016     22004     22002     22014     22017
     22005     22008     22009     22010     22005     22008     22009     22011
     22006     22005     22008     22009     22007     22005     22008     22009
     22008     22009     22011     22012     22008     22009     22011     22013
     22008     22009     22011     22061     22009     22011     22061     22062
     22009     22011     22061     22063     22009     22011     22061     22064
     22010     22009     22011     22012     22010     22009     22011     22013
     22010     22009     22011     22061     22011     22061     22064     22065
     22011     22061     22064     22066     22011     22061     22064     22067
     22012     22011     22061     22062     22012     22011     22061     22063
     22012     22011     22061     22064     22013     22011     22061     22062
     22013     22011     22061     22063     22013     22011     22061     22064
     22014     22017     22020     22021     22014     22017     22020     22022
     22015     22014     22017     22018     22015     22014     22017     22019
     22015     22014     22017     22020     22016     22014     22017     22018
     22016     22014     22017     22019     22016     22014     22017     22020
     22017     22020     22022     22023     22017     22020     22022     22024
     22018     22017     22020     22021     22018     22017     22020     22022
     22019     22017     22020     22021     22019     22017     22020     22022
     22020     22022     22024     22025     22020     22022     22024     22026
     22020     22022     22024     22027     22021     22020     22022     22023
     22021     22020     22022     22024     22022     22024     22027     22028
     22022     22024     22027     22029     22023     22022     22024     22025
     22023     22022     22024     22026     22023     22022     22024     22027
     22024     22027     22029     22030     22024     22027     22029     22031
     22025     22024     22027     22028     22025     22024     22027     22029
     22026     22024     22027     22028     22026     22024     22027     22029
     22027     22029     22031     22032     22027     22029     22031     22033
     22027     22029     22031     22034     22028     22027     22029     22030
     22028     22027     22029     22031     22029     22031     22034     22035
     22029     22031     22034     22036     22030     22029     22031     22032
     22030     22029     22031     22033     22030     22029     22031     22034
     22031     22034     22036     22037     22031     22034     22036     22038
     22032     22031     22034     22035     22032     22031     22034     22036
     22033     22031     22034     22035     22033     22031     22034     22036
     22034     22036     22038     22039     22034     22036     22038     22040
     22034     22036     22038     22041     22035     22034     22036     22037
     22035     22034     22036     22038     22036     22038     22041     22042
     22036     22038     22041     22043     22037     22036     22038     22039
     22037     22036     22038     22040     22037     22036     22038     22041
     22038     22041     22043     22044     22038     22041     22043     22045
     22039     22038     22041     22042     22039     22038     22041     22043
     22040     22038     22041     22042     22040     22038     22041     22043
     22041     22043     22045     22046     22041     22043     22045     22047
     22041     22043     22045     22048     22042     22041     22043     22044
     22042     22041     22043     22045     22043     22045     22048     22049
     22043     22045     22048     22050     22043     22045     22048     22051
     22044     22043     22045     22046     22044     22043     22045     22047
     22044     22043     22045     22048     22045     22048     22051     22052
     22045     22048     22051     22053     22045     22048     22051     22054
     22046     22045     22048     22049     22046     22045     22048     22050
     22046     22045     22048     22051     22047     22045     22048     22049
     22047     22045     22048     22050     22047     22045     22048     22051
     22048     22051     22054     22055     22048     22051     22054     22056
     22048     22051     22054     22057     22049     22048     22051     22052
     22049     22048     22051     22053     22049     22048     22051     22054
     22050     22048     22051     22052     22050     22048     22051     22053
     22050     22048     22051     22054     22051     22054     22057     22058
     22051     22054     22057     22059     22051     22054     22057     22060
     22052     22051     22054     22055     22052     22051     22054     22056
     22052     22051     22054     22057     22053     22051     22054     22055
     22053     22051     22054     22056     22053     22051     22054     22057
     22055     22054     22057     22058     22055     22054     22057     22059
     22055     22054     22057     22060     22056     22054     22057     22058
     22056     22054     22057     22059     22056     22054     22057     22060
     22061     22064     22067     22068     22061     22064     22067     22069
     22061     22064     22067     22070     22062     22061     22064     22065
     22062     22061     22064     22066     22062     22061     22064     22067
     22063     22061     22064     22065     22063     22061     22064     22066
     22063     22061     22064     22067     22064     22067     22070     22071
     22064     22067     22070     22072     22064     22067     22070     22073
     22065     22064     22067     22068     22065     22064     22067     22069
     22065     22064     22067     22070     22066     22064     22067     22068
     22066     22064     22067     22069     22066     22064     22067     22070
     22067     22070     22073     22074     22067     22070     22073     22075
     22067     22070     22073     22076     22068     22067     22070     22071
     22068     22067     22070     22072     22068     22067     22070     22073
     22069     22067     22070     22071     22069     22067     22070     22072
     22069     22067     22070     22073     22070     22073     22076     22077
     22070     22073     22076     22078     22070     22073     22076     22079
     22071     22070     22073     22074     22071     22070     22073     22075
     22071     22070     22073     22076     22072     22070     22073     22074
     22072     22070     22073     22075     22072     22070     22073     22076
     22073     22076     22079     22080     22073     22076     22079     22081
     22073     22076     22079     22082     22074     22073     22076     22077
     22074     22073     22076     22078     22074     22073     22076     22079
     22075     22073     22076     22077     22075     22073     22076     22078
     22075     22073     22076     22079     22076     22079     22082     22083
     22076     22079     22082     22084     22076     22079     22082     22085
     22077     22076     22079     22080     22077     22076     22079     22081
     22077     22076     22079     22082     22078     22076     22079     22080
     22078     22076     22079     22081     22078     22076     22079     22082
     22079     22082     22085     22086     22079     22082     22085     22087
     22079     22082     22085     22088     22080     22079     22082     22083
     22080     22079     22082     22084     22080     22079     22082     22085
     22081     22079     22082     22083     22081     22079     22082     22084
     22081     22079     22082     22085     22082     22085     22088     22089
     22082     22085     22088     22090     22082     22085     22088     22091
     22083     22082     22085     22086     22083     22082     22085     22087
     22083     22082     22085     22088     22084     22082     22085     22086
     22084     22082     22085     22087     22084     22082     22085     22088
     22085     22088     22091     22092     22085     22088     22091     22093
     22085     22088     22091     22094     22086     22085     22088     22089
     22086     22085     22088     22090     22086     22085     22088     22091
     22087     22085     22088     22089     22087     22085     22088     22090
     22087     22085     22088     22091     22088     22091     22094     22095
     22088     22091     22094     22096     22088     22091     22094     22097
     22089     22088     22091     22092     22089     22088     22091     22093
     22089     22088     22091     22094     22090     22088     22091     22092
     22090     22088     22091     22093     22090     22088     22091     22094
     22091     22094     22097     22098     22091     22094     22097     22099
     22091     22094     22097     22100     22092     22091     22094     22095
     22092     22091     22094     22096     22092     22091     22094     22097
     22093     22091     22094     22095     22093     22091     22094     22096
     22093     22091     22094     22097     22094     22097     22100     22101
     22094     22097     22100     22102     22094     22097     22100     22103
     22095     22094     22097     22098     22095     22094     22097     22099
     22095     22094     22097     22100     22096     22094     22097     22098
     22096     22094     22097     22099     22096     22094     22097     22100
     22097     22100     22103     22104     22097     22100     22103     22105
     22097     22100     22103     22106     22098     22097     22100     22101
     22098     22097     22100     22102     22098     22097     22100     22103
     22099     22097     22100     22101     22099     22097     22100     22102
     22099     22097     22100     22103     22100     22103     22106     22107
     22100     22103     22106     22108     22100     22103     22106     22109
     22101     22100     22103     22104     22101     22100     22103     22105
     22101     22100     22103     22106     22102     22100     22103     22104
     22102     22100     22103     22105     22102     22100     22103     22106
     22104     22103     22106     22107     22104     22103     22106     22108
     22104     22103     22106     22109     22105     22103     22106     22107
     22105     22103     22106     22108     22105     22103     22106     22109
      1464      1468      1470      1471      1464      1468      1470      1472
      1464      1468      1473      1474      1464      1468      1473      1475
      1464      1468      1473      1479      1465      1464      1468      1469
      1465      1464      1468      1470      1465      1464      1468      1473
      1466      1464      1468      1469      1466      1464      1468      1470
      1466      1464      1468      1473      1467      1464      1468      1469
      1467      1464      1468      1470      1467      1464      1468      1473
      1468      1473      1479      1476      1469      1468      1470      1471
      1469      1468      1470      1472      1469      1468      1473      1474
      1469      1468      1473      1475      1469      1468      1473      1479
      1470      1468      1473      1474      1470      1468      1473      1475
      1470      1468      1473      1479      1471      1470      1468      1473
      1472      1470      1468      1473      1473      1479      1476      1477
      1473      1479      1476      1478      1473      1479      1476      1480
      1474      1473      1479      1476      1475      1473      1479      1476
      1476      1480      1481      1482      1476      1480      1481      1483
      1476      1480      1481      1484      1477      1476      1480      1481
      1478      1476      1480      1481      1479      1476      1480      1481
      1480      1481      1484      1485      1480      1481      1484      1486
      1480      1481      1484      1492      1481      1484      1486      1487
      1481      1484      1492      1493      1481      1484      1492      1494
      1481      1484      1492      1495      1482      1481      1484      1485
      1482      1481      1484      1486      1482      1481      1484      1492
      1483      1481      1484      1485      1483      1481      1484      1486
      1483      1481      1484      1492      1484      1486      1487      1488
      1484      1486      1487      1489      1484      1492      1495      1496
      1485      1484      1486      1487      1485      1484      1492      1493
      1485      1484      1492      1494      1485      1484      1492      1495
      1486      1484      1492      1493      1486      1484      1492      1494
      1486      1484      1492      1495      1486      1487      1489      1490
      1486      1487      1489      1491      1486      1487      1489      1501
      1487      1486      1484      1492      1487      1489      1501      1502
      1487      1489      1501      1503      1487      1489      1501      1504
      1488      1487      1489      1490      1488      1487      1489      1491
      1488      1487      1489      1501      1489      1501      1504      1505
      1489      1501      1504      1506      1489      1501      1504      1507
      1490      1489      1501      1502      1490      1489      1501      1503
      1490      1489      1501      1504      1491      1489      1501      1502
      1491      1489      1501      1503      1491      1489      1501      1504
      1492      1495      1496      1497      1492      1495      1496      1498
      1493      1492      1495      1496      1494      1492      1495      1496
      1495      1496      1498      1499      1495      1496      1498      1500
      1495      1496      1498      1548      1496      1498      1548      1549
      1496      1498      1548      1550      1496      1498      1548      1551
      1497      1496      1498      1499      1497      1496      1498      1500
      1497      1496      1498      1548      1498      1548      1551      1552
      1498      1548      1551      1553      1498      1548      1551      1554
      1499      1498      1548      1549      1499      1498      1548      1550
      1499      1498      1548      1551      1500      1498      1548      1549
      1500      1498      1548      1550      1500      1498      1548      1551
      1501      1504      1507      1508      1501      1504      1507      1509
      1502      1501      1504      1505      1502      1501      1504      1506
      1502      1501      1504      1507      1503      1501      1504      1505
      1503      1501      1504      1506      1503      1501      1504      1507
      1504      1507      1509      1510      1504      1507      1509      1511
      1505      1504      1507      1508      1505      1504      1507      1509
      1506      1504      1507      1508      1506      1504      1507      1509
      1507      1509      1511      1512      1507      1509      1511      1513
      1507      1509      1511      1514      1508      1507      1509      1510
      1508      1507      1509      1511      1509      1511      1514      1515
      1509      1511      1514      1516      1510      1509      1511      1512
      1510      1509      1511      1513      1510      1509      1511      1514
      1511      1514      1516      1517      1511      1514      1516      1518
      1512      1511      1514      1515      1512      1511      1514      1516
      1513      1511      1514      1515      1513      1511      1514      1516
      1514      1516      1518      1519      1514      1516      1518      1520
      1514      1516      1518      1521      1515      1514      1516      1517
      1515      1514      1516      1518      1516      1518      1521      1522
      1516      1518      1521      1523      1517      1516      1518      1519
      1517      1516      1518      1520      1517      1516      1518      1521
      1518      1521      1523      1524      1518      1521      1523      1525
      1519      1518      1521      1522      1519      1518      1521      1523
      1520      1518      1521      1522      1520      1518      1521      1523
      1521      1523      1525      1526      1521      1523      1525      1527
      1521      1523      1525      1528      1522      1521      1523      1524
      1522      1521      1523      1525      1523      1525      1528      1529
      1523      1525      1528      1530      1524      1523      1525      1526
      1524      1523      1525      1527      1524      1523      1525      1528
      1525      1528      1530      1531      1525      1528      1530      1532
      1526      1525      1528      1529      1526      1525      1528      1530
      1527      1525      1528      1529      1527      1525      1528      1530
      1528      1530      1532      1533      1528      1530      1532      1534
      1528      1530      1532      1535      1529      1528      1530      1531
      1529      1528      1530      1532      1530      1532      1535      1536
      1530      1532      1535      1537      1530      1532      1535      1538
      1531      1530      1532      1533      1531      1530      1532      1534
      1531      1530      1532      1535      1532      1535      1538      1539
      1532      1535      1538      1540      1532      1535      1538      1541
      1533      1532      1535      1536      1533      1532      1535      1537
      1533      1532      1535      1538      1534      1532      1535      1536
      1534      1532      1535      1537      1534      1532      1535      1538
      1535      1538      1541      1542      1535      1538      1541      1543
      1535      1538      1541      1544      1536      1535      1538      1539
      1536      1535      1538      1540      1536      1535      1538      1541
      1537      1535      1538      1539      1537      1535      1538      1540
      1537      1535      1538      1541      1538      1541      1544      1545
      1538      1541      1544      1546      1538      1541      1544      1547
      1539      1538      1541      1542      1539      1538      1541      1543
      1539      1538      1541      1544      1540      1538      1541      1542
      1540      1538      1541      1543      1540      1538      1541      1544
      1542      1541      1544      1545      1542      1541      1544      1546
      1542      1541      1544      1547      1543      1541      1544      1545
      1543      1541      1544      1546      1543      1541      1544      1547
      1548      1551      1554      1555      1548      1551      1554      1556
      1548      1551      1554      1557      1549      1548      1551      1552
      1549      1548      1551      1553      1549      1548      1551      1554
      1550      1548      1551      1552      1550      1548      1551      1553
      1550      1548      1551      1554      1551      1554      1557      1558
      1551      1554      1557      1559      1551      1554      1557      1560
      1552      1551      1554      1555      1552      1551      1554      1556
      1552      1551      1554      1557      1553      1551      1554      1555
      1553      1551      1554      1556      1553      1551      1554      1557
      1554      1557      1560      1561      1554      1557      1560      1562
      1554      1557      1560      1563      1555      1554      1557      1558
      1555      1554      1557      1559      1555      1554      1557      1560
      1556      1554      1557      1558      1556      1554      1557      1559
      1556      1554      1557      1560      1557      1560      1563      1564
      1557      1560      1563      1565      1557      1560      1563      1566
      1558      1557      1560      1561      1558      1557      1560      1562
      1558      1557      1560      1563      1559      1557      1560      1561
      1559      1557      1560      1562      1559      1557      1560      1563
      1560      1563      1566      1567      1560      1563      1566      1568
      1560      1563      1566      1569      1561      1560      1563      1564
      1561      1560      1563      1565      1561      1560      1563      1566
      1562      1560      1563      1564      1562      1560      1563      1565
      1562      1560      1563      1566      1563      1566      1569      1570
      1563      1566      1569      1571      1563      1566      1569      1572
      1564      1563      1566      1567      1564      1563      1566      1568
      1564      1563      1566      1569      1565      1563      1566      1567
      1565      1563      1566      1568      1565      1563      1566      1569
      1566      1569      1572      1573      1566      1569      1572      1574
      1566      1569      1572      1575      1567      1566      1569      1570
      1567      1566      1569      1571      1567      1566      1569      1572
      1568      1566      1569      1570      1568      1566      1569      1571
      1568      1566      1569      1572      1569      1572      1575      1576
      1569      1572      1575      1577      1569      1572      1575      1578
      1570      1569      1572      1573      1570      1569      1572      1574
      1570      1569      1572      1575      1571      1569      1572      1573
      1571      1569      1572      1574      1571      1569      1572      1575
      1572      1575      1578      1579      1572      1575      1578      1580
      1572      1575      1578      1581      1573      1572      1575      1576
      1573      1572      1575      1577      1573      1572      1575      1578
      1574      1572      1575      1576      1574      1572      1575      1577
      1574      1572      1575      1578      1575      1578      1581      1582
      1575      1578      1581      1583      1575      1578      1581      1584
      1576      1575      1578      1579      1576      1575      1578      1580
      1576      1575      1578      1581      1577      1575      1578      1579
      1577      1575      1578      1580      1577      1575      1578      1581
      1578      1581      1584      1585      1578      1581      1584      1586
      1578      1581      1584      1587      1579      1578      1581      1582
      1579      1578      1581      1583      1579      1578      1581      1584
      1580      1578      1581      1582      1580      1578      1581      1583
      1580      1578      1581      1584      1581      1584      1587      1588
      1581      1584      1587      1589      1581      1584      1587      1590
      1582      1581      1584      1585      1582      1581      1584      1586
      1582      1581      1584      1587      1583      1581      1584      1585
      1583      1581      1584      1586      1583      1581      1584      1587
      1584      1587      1590      1591      1584      1587      1590      1592
      1584      1587      1590      1593      1585      1584      1587      1588
      1585      1584      1587      1589      1585      1584      1587      1590
      1586      1584      1587      1588      1586      1584      1587      1589
      1586      1584      1587      1590      1587      1590      1593      1594
      1587      1590      1593      1595      1587      1590      1593      1596
      1588      1587      1590      1591      1588      1587      1590      1592
      1588      1587      1590      1593      1589      1587      1590      1591
      1589      1587      1590      1592      1589      1587      1590      1593
      1591      1590      1593      1594      1591      1590      1593      1595
      1591      1590      1593      1596      1592      1590      1593      1594
      1592      1590      1593      1595      1592      1590      1593      1596
     13070     13083     13086     13087     13070     13083     13086     13088
     13070     13083     13086     13093     13071     13070     13075     13076
     13071     13070     13075     13077     13071     13070     13075     13078
     13071     13070     13079     13080     13071     13070     13079     13081
     13071     13070     13079     13082     13071     13070     13083     13084
     13071     13070     13083     13085     13071     13070     13083     13086
     13072     13071     13070     13075     13072     13071     13070     13079
     13072     13071     13070     13083     13073     13071     13070     13075
     13073     13071     13070     13079     13073     13071     13070     13083
     13074     13071     13070     13075     13074     13071     13070     13079
     13074     13071     13070     13083     13075     13070     13079     13080
     13075     13070     13079     13081     13075     13070     13079     13082
     13075     13070     13083     13084     13075     13070     13083     13085
     13075     13070     13083     13086     13076     13075     13070     13079
     13076     13075     13070     13083     13077     13075     13070     13079
     13077     13075     13070     13083     13078     13075     13070     13079
     13078     13075     13070     13083     13079     13070     13083     13084
     13079     13070     13083     13085     13079     13070     13083     13086
     13080     13079     13070     13083     13081     13079     13070     13083
     13082     13079     13070     13083     13083     13086     13093     13089
     13084     13083     13086     13087     13084     13083     13086     13088
     13084     13083     13086     13093     13085     13083     13086     13087
     13085     13083     13086     13088     13085     13083     13086     13093
     13086     13093     13089     13090     13086     13093     13089     13091
     13086     13093     13089     13092     13087     13086     13093     13089
     13088     13086     13093     13089     13089     13092     13094     13095
     13089     13092     13094     13096     13089     13092     13094     13099
     13090     13089     13092     13094     13091     13089     13092     13094
     13092     13094     13099     13097     13092     13094     13099     13100
     13092     13094     13099     13101     13093     13089     13092     13094
     13094     13099     13097     13098     13094     13099     13097     13149
     13094     13099     13101     13102     13094     13099     13101     13103
     13094     13099     13101     13105     13095     13094     13099     13097
     13095     13094     13099     13100     13095     13094     13099     13101
     13096     13094     13099     13097     13096     13094     13099     13100
     13096     13094     13099     13101     13097     13099     13101     13102
     13097     13099     13101     13103     13097     13099     13101     13105
     13097     13149     13151     13152     13097     13149     13151     13153
     13097     13149     13151     13154     13098     13097     13099     13100
     13098     13097     13099     13101     13098     13097     13149     13150
     13098     13097     13149     13151     13099     13097     13149     13150
     13099     13097     13149     13151     13099     13101     13103     13104
     13099     13101     13105     13106     13099     13101     13105     13107
     13100     13099     13097     13149     13100     13099     13101     13102
     13100     13099     13101     13103     13100     13099     13101     13105
     13101     13099     13097     13149     13101     13105     13107     13108
     13101     13105     13107     13109     13102     13101     13103     13104
     13102     13101     13105     13106     13102     13101     13105     13107
     13103     13101     13105     13106     13103     13101     13105     13107
     13104     13103     13101     13105     13105     13107     13109     13110
     13105     13107     13109     13111     13105     13107     13109     13112
     13106     13105     13107     13108     13106     13105     13107     13109
     13107     13109     13112     13113     13107     13109     13112     13114
     13107     13109     13112     13115     13108     13107     13109     13110
     13108     13107     13109     13111     13108     13107     13109     13112
     13109     13112     13115     13116     13109     13112     13115     13117
     13109     13112     13115     13118     13110     13109     13112     13113
     13110     13109     13112     13114     13110     13109     13112     13115
     13111     13109     13112     13113     13111     13109     13112     13114
     13111     13109     13112     13115     13112     13115     13118     13119
     13112     13115     13118     13120     13112     13115     13118     13121
     13113     13112     13115     13116     13113     13112     13115     13117
     13113     13112     13115     13118     13114     13112     13115     13116
     13114     13112     13115     13117     13114     13112     13115     13118
     13115     13118     13121     13122     13115     13118     13121     13123
     13115     13118     13121     13124     13116     13115     13118     13119
     13116     13115     13118     13120     13116     13115     13118     13121
     13117     13115     13118     13119     13117     13115     13118     13120
     13117     13115     13118     13121     13118     13121     13124     13125
     13118     13121     13124     13126     13118     13121     13124     13127
     13119     13118     13121     13122     13119     13118     13121     13123
     13119     13118     13121     13124     13120     13118     13121     13122
     13120     13118     13121     13123     13120     13118     13121     13124
     13121     13124     13127     13128     13121     13124     13127     13129
     13121     13124     13127     13130     13122     13121     13124     13125
     13122     13121     13124     13126     13122     13121     13124     13127
     13123     13121     13124     13125     13123     13121     13124     13126
     13123     13121     13124     13127     13124     13127     13130     13131
     13124     13127     13130     13132     13124     13127     13130     13133
     13125     13124     13127     13128     13125     13124     13127     13129
     13125     13124     13127     13130     13126     13124     13127     13128
     13126     13124     13127     13129     13126     13124     13127     13130
     13127     13130     13133     13134     13127     13130     13133     13135
     13127     13130     13133     13136     13128     13127     13130     13131
     13128     13127     13130     13132     13128     13127     13130     13133
     13129     13127     13130     13131     13129     13127     13130     13132
     13129     13127     13130     13133     13130     13133     13136     13137
     13130     13133     13136     13138     13130     13133     13136     13139
     13131     13130     13133     13134     13131     13130     13133     13135
     13131     13130     13133     13136     13132     13130     13133     13134
     13132     13130     13133     13135     13132     13130     13133     13136
     13133     13136     13139     13140     13133     13136     13139     13141
     13133     13136     13139     13142     13134     13133     13136     13137
     13134     13133     13136     13138     13134     13133     13136     13139
     13135     13133     13136     13137     13135     13133     13136     13138
     13135     13133     13136     13139     13136     13139     13142     13143
     13136     13139     13142     13144     13136     13139     13142     13145
     13137     13136     13139     13140     13137     13136     13139     13141
     13137     13136     13139     13142     13138     13136     13139     13140
     13138     13136     13139     13141     13138     13136     13139     13142
     13139     13142     13145     13146     13139     13142     13145     13147
     13139     13142     13145     13148     13140     13139     13142     13143
     13140     13139     13142     13144     13140     13139     13142     13145
     13141     13139     13142     13143     13141     13139     13142     13144
     13141     13139     13142     13145     13143     13142     13145     13146
     13143     13142     13145     13147     13143     13142     13145     13148
     13144     13142     13145     13146     13144     13142     13145     13147
     13144     13142     13145     13148     13149     13151     13154     13155
     13149     13151     13154     13156     13149     13151     13154     13157
     13150     13149     13151     13152     13150     13149     13151     13153
     13150     13149     13151     13154     13151     13154     13157     13158
     13151     13154     13157     13159     13151     13154     13157     13160
     13152     13151     13154     13155     13152     13151     13154     13156
     13152     13151     13154     13157     13153     13151     13154     13155
     13153     13151     13154     13156     13153     13151     13154     13157
     13154     13157     13160     13161     13154     13157     13160     13162
     13154     13157     13160     13163     13155     13154     13157     13158
     13155     13154     13157     13159     13155     13154     13157     13160
     13156     13154     13157     13158     13156     13154     13157     13159
     13156     13154     13157     13160     13157     13160     13163     13164
     13157     13160     13163     13165     13157     13160     13163     13166
     13158     13157     13160     13161     13158     13157     13160     13162
     13158     13157     13160     13163     13159     13157     13160     13161
     13159     13157     13160     13162     13159     13157     13160     13163
     13160     13163     13166     13167     13160     13163     13166     13168
     13160     13163     13166     13169     13161     13160     13163     13164
     13161     13160     13163     13165     13161     13160     13163     13166
     13162     13160     13163     13164     13162     13160     13163     13165
     13162     13160     13163     13166     13163     13166     13169     13170
     13163     13166     13169     13171     13163     13166     13169     13172
     13164     13163     13166     13167     13164     13163     13166     13168
     13164     13163     13166     13169     13165     13163     13166     13167
     13165     13163     13166     13168     13165     13163     13166     13169
     13166     13169     13172     13173     13166     13169     13172     13174
     13167     13166     13169     13170     13167     13166     13169     13171
     13167     13166     13169     13172     13168     13166     13169     13170
     13168     13166     13169     13171     13168     13166     13169     13172
     13169     13172     13174     13175     13169     13172     13174     13176
     13170     13169     13172     13173     13170     13169     13172     13174
     13171     13169     13172     13173     13171     13169     13172     13174
     13172     13174     13176     13177     13172     13174     13176     13178
     13172     13174     13176     13179     13173     13172     13174     13175
     13173     13172     13174     13176     13174     13176     13179     13180
     13174     13176     13179     13181     13174     13176     13179     13182
     13175     13174     13176     13177     13175     13174     13176     13178
     13175     13174     13176     13179     13176     13179     13182     13183
     13176     13179     13182     13184     13176     13179     13182     13185
     13177     13176     13179     13180     13177     13176     13179     13181
     13177     13176     13179     13182     13178     13176     13179     13180
     13178     13176     13179     13181     13178     13176     13179     13182
     13179     13182     13185     13186     13179     13182     13185     13187
     13179     13182     13185     13188     13180     13179     13182     13183
     13180     13179     13182     13184     13180     13179     13182     13185
     13181     13179     13182     13183     13181     13179     13182     13184
     13181     13179     13182     13185     13182     13185     13188     13189
     13182     13185     13188     13190     13182     13185     13188     13191
     13183     13182     13185     13186     13183     13182     13185     13187
     13183     13182     13185     13188     13184     13182     13185     13186
     13184     13182     13185     13187     13184     13182     13185     13188
     13185     13188     13191     13192     13185     13188     13191     13193
     13185     13188     13191     13194     13186     13185     13188     13189
     13186     13185     13188     13190     13186     13185     13188     13191
     13187     13185     13188     13189     13187     13185     13188     13190
     13187     13185     13188     13191     13188     13191     13194     13195
     13188     13191     13194     13196     13188     13191     13194     13197
     13189     13188     13191     13192     13189     13188     13191     13193
     13189     13188     13191     13194     13190     13188     13191     13192
     13190     13188     13191     13193     13190     13188     13191     13194
     13191     13194     13197     13198     13191     13194     13197     13199
     13191     13194     13197     13200     13192     13191     13194     13195
     13192     13191     13194     13196     13192     13191     13194     13197
     13193     13191     13194     13195     13193     13191     13194     13196
     13193     13191     13194     13197     13195     13194     13197     13198
     13195     13194     13197     13199     13195     13194     13197     13200
     13196     13194     13197     13198     13196     13194     13197     13199
     13196     13194     13197     13200      7722      7726      7729      7730
      7722      7726      7729      7731      7722      7726      7729      7735
      7723      7722      7726      7727      7723      7722      7726      7728
      7723      7722      7726      7729      7724      7722      7726      7727
      7724      7722      7726      7728      7724      7722      7726      7729
      7725      7722      7726      7727      7725      7722      7726      7728
      7725      7722      7726      7729      7726      7729      7735      7732
      7727      7726      7729      7730      7727      7726      7729      7731
      7727      7726      7729      7735      7728      7726      7729      7730
      7728      7726      7729      7731      7728      7726      7729      7735
      7729      7735      7732      7733      7729      7735      7732      7734
      7729      7735      7732      7736      7730      7729      7735      7732
      7731      7729      7735      7732      7732      7736      7737      7738
      7732      7736      7737      7739      7732      7736      7737      7740
      7733      7732      7736      7737      7734      7732      7736      7737
      7735      7732      7736      7737      7736      7737      7740      7741
      7736      7737      7740      7742      7736      7737      7740      7748
      7737      7740      7742      7743      7737      7740      7748      7749
      7737      7740      7748      7750      7737      7740      7748      7751
      7738      7737      7740      7741      7738      7737      7740      7742
      7738      7737      7740      7748      7739      7737      7740      7741
      7739      7737      7740      7742      7739      7737      7740      7748
      7740      7742      7743      7744      7740      7742      7743      7745
      7740      7748      7751      7752      7741      7740      7742      7743
      7741      7740      7748      7749      7741      7740      7748      7750
      7741      7740      7748      7751      7742      7740      7748      7749
      7742      7740      7748      7750      7742      7740      7748      7751
      7742      7743      7745      7746      7742      7743      7745      7747
      7742      7743      7745      7757      7743      7742      7740      7748
      7743      7745      7757      7758      7743      7745      7757      7759
      7743      7745      7757      7760      7744      7743      7745      7746
      7744      7743      7745      7747      7744      7743      7745      7757
      7745      7757      7760      7761      7745      7757      7760      7762
      7745      7757      7760      7763      7746      7745      7757      7758
      7746      7745      7757      7759      7746      7745      7757      7760
      7747      7745      7757      7758      7747      7745      7757      7759
      7747      7745      7757      7760      7748      7751      7752      7753
      7748      7751      7752      7754      7749      7748      7751      7752
      7750      7748      7751      7752      7751      7752      7754      7755
      7751      7752      7754      7756      7751      7752      7754      7804
      7752      7754      7804      7805      7752      7754      7804      7806
      7752      7754      7804      7807      7753      7752      7754      7755
      7753      7752      7754      7756      7753      7752      7754      7804
      7754      7804      7807      7808      7754      7804      7807      7809
      7754      7804      7807      7810      7755      7754      7804      7805
      7755      7754      7804      7806      7755      7754      7804      7807
      7756      7754      7804      7805      7756      7754      7804      7806
      7756      7754      7804      7807      7757      7760      7763      7764
      7757      7760      7763      7765      7757      7760      7763      7766
      7758      7757      7760      7761      7758      7757      7760      7762
      7758      7757      7760      7763      7759      7757      7760      7761
      7759      7757      7760      7762      7759      7757      7760      7763
      7760      7763      7766      7767      7760      7763      7766      7768
      7760      7763      7766      7769      7761      7760      7763      7764
      7761      7760      7763      7765      7761      7760      7763      7766
      7762      7760      7763      7764      7762      7760      7763      7765
      7762      7760      7763      7766      7763      7766      7769      7770
      7763      7766      7769      7771      7763      7766      7769      7772
      7764      7763      7766      7767      7764      7763      7766      7768
      7764      7763      7766      7769      7765      7763      7766      7767
      7765      7763      7766      7768      7765      7763      7766      7769
      7766      7769      7772      7773      7766      7769      7772      7774
      7766      7769      7772      7775      7767      7766      7769      7770
      7767      7766      7769      7771      7767      7766      7769      7772
      7768      7766      7769      7770      7768      7766      7769      7771
      7768      7766      7769      7772      7769      7772      7775      7776
      7769      7772      7775      7777      7770      7769      7772      7773
      7770      7769      7772      7774      7770      7769      7772      7775
      7771      7769      7772      7773      7771      7769      7772      7774
      7771      7769      7772      7775      7772      7775      7777      7778
      7772      7775      7777      7779      7773      7772      7775      7776
      7773      7772      7775      7777      7774      7772      7775      7776
      7774      7772      7775      7777      7775      7777      7779      7780
      7775      7777      7779      7781      7775      7777      7779      7782
      7776      7775      7777      7778      7776      7775      7777      7779
      7777      7779      7782      7783      7777      7779      7782      7784
      7777      7779      7782      7785      7778      7777      7779      7780
      7778      7777      7779      7781      7778      7777      7779      7782
      7779      7782      7785      7786      7779      7782      7785      7787
      7779      7782      7785      7788      7780      7779      7782      7783
      7780      7779      7782      7784      7780      7779      7782      7785
      7781      7779      7782      7783      7781      7779      7782      7784
      7781      7779      7782      7785      7782      7785      7788      7789
      7782      7785      7788      7790      7782      7785      7788      7791
      7783      7782      7785      7786      7783      7782      7785      7787
      7783      7782      7785      7788      7784      7782      7785      7786
      7784      7782      7785      7787      7784      7782      7785      7788
      7785      7788      7791      7792      7785      7788      7791      7793
      7785      7788      7791      7794      7786      7785      7788      7789
      7786      7785      7788      7790      7786      7785      7788      7791
      7787      7785      7788      7789      7787      7785      7788      7790
      7787      7785      7788      7791      7788      7791      7794      7795
      7788      7791      7794      7796      7788      7791      7794      7797
      7789      7788      7791      7792      7789      7788      7791      7793
      7789      7788      7791      7794      7790      7788      7791      7792
      7790      7788      7791      7793      7790      7788      7791      7794
      7791      7794      7797      7798      7791      7794      7797      7799
      7791      7794      7797      7800      7792      7791      7794      7795
      7792      7791      7794      7796      7792      7791      7794      7797
      7793      7791      7794      7795      7793      7791      7794      7796
      7793      7791      7794      7797      7794      7797      7800      7801
      7794      7797      7800      7802      7794      7797      7800      7803
      7795      7794      7797      7798      7795      7794      7797      7799
      7795      7794      7797      7800      7796      7794      7797      7798
      7796      7794      7797      7799      7796      7794      7797      7800
      7798      7797      7800      7801      7798      7797      7800      7802
      7798      7797      7800      7803      7799      7797      7800      7801
      7799      7797      7800      7802      7799      7797      7800      7803
      7804      7807      7810      7811      7804      7807      7810      7812
      7804      7807      7810      7813      7805      7804      7807      7808
      7805      7804      7807      7809      7805      7804      7807      7810
      7806      7804      7807      7808      7806      7804      7807      7809
      7806      7804      7807      7810      7807      7810      7813      7814
      7807      7810      7813      7815      7807      7810      7813      7816
      7808      7807      7810      7811      7808      7807      7810      7812
      7808      7807      7810      7813      7809      7807      7810      7811
      7809      7807      7810      7812      7809      7807      7810      7813
      7810      7813      7816      7817      7810      7813      7816      7818
      7810      7813      7816      7819      7811      7810      7813      7814
      7811      7810      7813      7815      7811      7810      7813      7816
      7812      7810      7813      7814      7812      7810      7813      7815
      7812      7810      7813      7816      7813      7816      7819      7820
      7813      7816      7819      7821      7813      7816      7819      7822
      7814      7813      7816      7817      7814      7813      7816      7818
      7814      7813      7816      7819      7815      7813      7816      7817
      7815      7813      7816      7818      7815      7813      7816      7819
      7816      7819      7822      7823      7816      7819      7822      7824
      7816      7819      7822      7825      7817      7816      7819      7820
      7817      7816      7819      7821      7817      7816      7819      7822
      7818      7816      7819      7820      7818      7816      7819      7821
      7818      7816      7819      7822      7819      7822      7825      7826
      7819      7822      7825      7827      7819      7822      7825      7828
      7820      7819      7822      7823      7820      7819      7822      7824
      7820      7819      7822      7825      7821      7819      7822      7823
      7821      7819      7822      7824      7821      7819      7822      7825
      7822      7825      7828      7829      7822      7825      7828      7830
      7822      7825      7828      7831      7823      7822      7825      7826
      7823      7822      7825      7827      7823      7822      7825      7828
      7824      7822      7825      7826      7824      7822      7825      7827
      7824      7822      7825      7828      7825      7828      7831      7832
      7825      7828      7831      7833      7825      7828      7831      7834
      7826      7825      7828      7829      7826      7825      7828      7830
      7826      7825      7828      7831      7827      7825      7828      7829
      7827      7825      7828      7830      7827      7825      7828      7831
      7828      7831      7834      7835      7828      7831      7834      7836
      7828      7831      7834      7837      7829      7828      7831      7832
      7829      7828      7831      7833      7829      7828      7831      7834
      7830      7828      7831      7832      7830      7828      7831      7833
      7830      7828      7831      7834      7831      7834      7837      7838
      7831      7834      7837      7839      7831      7834      7837      7840
      7832      7831      7834      7835      7832      7831      7834      7836
      7832      7831      7834      7837      7833      7831      7834      7835
      7833      7831      7834      7836      7833      7831      7834      7837
      7834      7837      7840      7841      7834      7837      7840      7842
      7834      7837      7840      7843      7835      7834      7837      7838
      7835      7834      7837      7839      7835      7834      7837      7840
      7836      7834      7837      7838      7836      7834      7837      7839
      7836      7834      7837      7840      7837      7840      7843      7844
      7837      7840      7843      7845      7837      7840      7843      7846
      7838      7837      7840      7841      7838      7837      7840      7842
      7838      7837      7840      7843      7839      7837      7840      7841
      7839      7837      7840      7842      7839      7837      7840      7843
      7840      7843      7846      7847      7840      7843      7846      7848
      7840      7843      7846      7849      7841      7840      7843      7844
      7841      7840      7843      7845      7841      7840      7843      7846
      7842      7840      7843      7844      7842      7840      7843      7845
      7842      7840      7843      7846      7843      7846      7849      7850
      7843      7846      7849      7851      7843      7846      7849      7852
      7844      7843      7846      7847      7844      7843      7846      7848
      7844      7843      7846      7849      7845      7843      7846      7847
      7845      7843      7846      7848      7845      7843      7846      7849
      7847      7846      7849      7850      7847      7846      7849      7851
      7847      7846      7849      7852      7848      7846      7849      7850
      7848      7846      7849      7851      7848      7846      7849      7852
     13201     13214     13217     13218     13201     13214     13217     13219
     13201     13214     13217     13224     13202     13201     13206     13207
     13202     13201     13206     13208     13202     13201     13206     13209
     13202     13201     13210     13211     13202     13201     13210     13212
     13202     13201     13210     13213     13202     13201     13214     13215
     13202     13201     13214     13216     13202     13201     13214     13217
     13203     13202     13201     13206     13203     13202     13201     13210
     13203     13202     13201     13214     13204     13202     13201     13206
     13204     13202     13201     13210     13204     13202     13201     13214
     13205     13202     13201     13206     13205     13202     13201     13210
     13205     13202     13201     13214     13206     13201     13210     13211
     13206     13201     13210     13212     13206     13201     13210     13213
     13206     13201     13214     13215     13206     13201     13214     13216
     13206     13201     13214     13217     13207     13206     13201     13210
     13207     13206     13201     13214     13208     13206     13201     13210
     13208     13206     13201     13214     13209     13206     13201     13210
     13209     13206     13201     13214     13210     13201     13214     13215
     13210     13201     13214     13216     13210     13201     13214     13217
     13211     13210     13201     13214     13212     13210     13201     13214
     13213     13210     13201     13214     13214     13217     13224     13220
     13215     13214     13217     13218     13215     13214     13217     13219
     13215     13214     13217     13224     13216     13214     13217     13218
     13216     13214     13217     13219     13216     13214     13217     13224
     13217     13224     13220     13221     13217     13224     13220     13222
     13217     13224     13220     13223     13218     13217     13224     13220
     13219     13217     13224     13220     13220     13223     13225     13226
     13220     13223     13225     13227     13220     13223     13225     13230
     13221     13220     13223     13225     13222     13220     13223     13225
     13223     13225     13230     13228     13223     13225     13230     13231
     13223     13225     13230     13232     13224     13220     13223     13225
     13225     13230     13228     13229     13225     13230     13228     13280
     13225     13230     13232     13233     13225     13230     13232     13234
     13225     13230     13232     13236     13226     13225     13230     13228
     13226     13225     13230     13231     13226     13225     13230     13232
     13227     13225     13230     13228     13227     13225     13230     13231
     13227     13225     13230     13232     13228     13230     13232     13233
     13228     13230     13232     13234     13228     13230     13232     13236
     13228     13280     13282     13283     13228     13280     13282     13284
     13228     13280     13282     13285     13229     13228     13230     13231
     13229     13228     13230     13232     13229     13228     13280     13281
     13229     13228     13280     13282     13230     13228     13280     13281
     13230     13228     13280     13282     13230     13232     13234     13235
     13230     13232     13236     13237     13230     13232     13236     13238
     13231     13230     13228     13280     13231     13230     13232     13233
     13231     13230     13232     13234     13231     13230     13232     13236
     13232     13230     13228     13280     13232     13236     13238     13239
     13232     13236     13238     13240     13233     13232     13234     13235
     13233     13232     13236     13237     13233     13232     13236     13238
     13234     13232     13236     13237     13234     13232     13236     13238
     13235     13234     13232     13236     13236     13238     13240     13241
     13236     13238     13240     13242     13236     13238     13240     13243
     13237     13236     13238     13239     13237     13236     13238     13240
     13238     13240     13243     13244     13238     13240     13243     13245
     13238     13240     13243     13246     13239     13238     13240     13241
     13239     13238     13240     13242     13239     13238     13240     13243
     13240     13243     13246     13247     13240     13243     13246     13248
     13240     13243     13246     13249     13241     13240     13243     13244
     13241     13240     13243     13245     13241     13240     13243     13246
     13242     13240     13243     13244     13242     13240     13243     13245
     13242     13240     13243     13246     13243     13246     13249     13250
     13243     13246     13249     13251     13243     13246     13249     13252
     13244     13243     13246     13247     13244     13243     13246     13248
     13244     13243     13246     13249     13245     13243     13246     13247
     13245     13243     13246     13248     13245     13243     13246     13249
     13246     13249     13252     13253     13246     13249     13252     13254
     13246     13249     13252     13255     13247     13246     13249     13250
     13247     13246     13249     13251     13247     13246     13249     13252
     13248     13246     13249     13250     13248     13246     13249     13251
     13248     13246     13249     13252     13249     13252     13255     13256
     13249     13252     13255     13257     13249     13252     13255     13258
     13250     13249     13252     13253     13250     13249     13252     13254
     13250     13249     13252     13255     13251     13249     13252     13253
     13251     13249     13252     13254     13251     13249     13252     13255
     13252     13255     13258     13259     13252     13255     13258     13260
     13252     13255     13258     13261     13253     13252     13255     13256
     13253     13252     13255     13257     13253     13252     13255     13258
     13254     13252     13255     13256     13254     13252     13255     13257
     13254     13252     13255     13258     13255     13258     13261     13262
     13255     13258     13261     13263     13255     13258     13261     13264
     13256     13255     13258     13259     13256     13255     13258     13260
     13256     13255     13258     13261     13257     13255     13258     13259
     13257     13255     13258     13260     13257     13255     13258     13261
     13258     13261     13264     13265     13258     13261     13264     13266
     13258     13261     13264     13267     13259     13258     13261     13262
     13259     13258     13261     13263     13259     13258     13261     13264
     13260     13258     13261     13262     13260     13258     13261     13263
     13260     13258     13261     13264     13261     13264     13267     13268
     13261     13264     13267     13269     13261     13264     13267     13270
     13262     13261     13264     13265     13262     13261     13264     13266
     13262     13261     13264     13267     13263     13261     13264     13265
     13263     13261     13264     13266     13263     13261     13264     13267
     13264     13267     13270     13271     13264     13267     13270     13272
     13264     13267     13270     13273     13265     13264     13267     13268
     13265     13264     13267     13269     13265     13264     13267     13270
     13266     13264     13267     13268     13266     13264     13267     13269
     13266     13264     13267     13270     13267     13270     13273     13274
     13267     13270     13273     13275     13267     13270     13273     13276
     13268     13267     13270     13271     13268     13267     13270     13272
     13268     13267     13270     13273     13269     13267     13270     13271
     13269     13267     13270     13272     13269     13267     13270     13273
     13270     13273     13276     13277     13270     13273     13276     13278
     13270     13273     13276     13279     13271     13270     13273     13274
     13271     13270     13273     13275     13271     13270     13273     13276
     13272     13270     13273     13274     13272     13270     13273     13275
     13272     13270     13273     13276     13274     13273     13276     13277
     13274     13273     13276     13278     13274     13273     13276     13279
     13275     13273     13276     13277     13275     13273     13276     13278
     13275     13273     13276     13279     13280     13282     13285     13286
     13280     13282     13285     13287     13280     13282     13285     13288
     13281     13280     13282     13283     13281     13280     13282     13284
     13281     13280     13282     13285     13282     13285     13288     13289
     13282     13285     13288     13290     13282     13285     13288     13291
     13283     13282     13285     13286     13283     13282     13285     13287
     13283     13282     13285     13288     13284     13282     13285     13286
     13284     13282     13285     13287     13284     13282     13285     13288
     13285     13288     13291     13292     13285     13288     13291     13293
     13285     13288     13291     13294     13286     13285     13288     13289
     13286     13285     13288     13290     13286     13285     13288     13291
     13287     13285     13288     13289     13287     13285     13288     13290
     13287     13285     13288     13291     13288     13291     13294     13295
     13288     13291     13294     13296     13288     13291     13294     13297
     13289     13288     13291     13292     13289     13288     13291     13293
     13289     13288     13291     13294     13290     13288     13291     13292
     13290     13288     13291     13293     13290     13288     13291     13294
     13291     13294     13297     13298     13291     13294     13297     13299
     13291     13294     13297     13300     13292     13291     13294     13295
     13292     13291     13294     13296     13292     13291     13294     13297
     13293     13291     13294     13295     13293     13291     13294     13296
     13293     13291     13294     13297     13294     13297     13300     13301
     13294     13297     13300     13302     13294     13297     13300     13303
     13295     13294     13297     13298     13295     13294     13297     13299
     13295     13294     13297     13300     13296     13294     13297     13298
     13296     13294     13297     13299     13296     13294     13297     13300
     13297     13300     13303     13304     13297     13300     13303     13305
     13298     13297     13300     13301     13298     13297     13300     13302
     13298     13297     13300     13303     13299     13297     13300     13301
     13299     13297     13300     13302     13299     13297     13300     13303
     13300     13303     13305     13306     13300     13303     13305     13307
     13301     13300     13303     13304     13301     13300     13303     13305
     13302     13300     13303     13304     13302     13300     13303     13305
     13303     13305     13307     13308     13303     13305     13307     13309
     13303     13305     13307     13310     13304     13303     13305     13306
     13304     13303     13305     13307     13305     13307     13310     13311
     13305     13307     13310     13312     13305     13307     13310     13313
     13306     13305     13307     13308     13306     13305     13307     13309
     13306     13305     13307     13310     13307     13310     13313     13314
     13307     13310     13313     13315     13307     13310     13313     13316
     13308     13307     13310     13311     13308     13307     13310     13312
     13308     13307     13310     13313     13309     13307     13310     13311
     13309     13307     13310     13312     13309     13307     13310     13313
     13310     13313     13316     13317     13310     13313     13316     13318
     13310     13313     13316     13319     13311     13310     13313     13314
     13311     13310     13313     13315     13311     13310     13313     13316
     13312     13310     13313     13314     13312     13310     13313     13315
     13312     13310     13313     13316     13313     13316     13319     13320
     13313     13316     13319     13321     13313     13316     13319     13322
     13314     13313     13316     13317     13314     13313     13316     13318
     13314     13313     13316     13319     13315     13313     13316     13317
     13315     13313     13316     13318     13315     13313     13316     13319
     13316     13319     13322     13323     13316     13319     13322     13324
     13316     13319     13322     13325     13317     13316     13319     13320
     13317     13316     13319     13321     13317     13316     13319     13322
     13318     13316     13319     13320     13318     13316     13319     13321
     13318     13316     13319     13322     13319     13322     13325     13326
     13319     13322     13325     13327     13319     13322     13325     13328
     13320     13319     13322     13323     13320     13319     13322     13324
     13320     13319     13322     13325     13321     13319     13322     13323
     13321     13319     13322     13324     13321     13319     13322     13325
     13322     13325     13328     13329     13322     13325     13328     13330
     13322     13325     13328     13331     13323     13322     13325     13326
     13323     13322     13325     13327     13323     13322     13325     13328
     13324     13322     13325     13326     13324     13322     13325     13327
     13324     13322     13325     13328     13326     13325     13328     13329
     13326     13325     13328     13330     13326     13325     13328     13331
     13327     13325     13328     13329     13327     13325     13328     13330
     13327     13325     13328     13331     20317     20330     20333     20334
     20317     20330     20333     20335     20317     20330     20333     20339
     20318     20317     20322     20323     20318     20317     20322     20324
     20318     20317     20322     20325     20318     20317     20326     20327
     20318     20317     20326     20328     20318     20317     20326     20329
     20318     20317     20330     20331     20318     20317     20330     20332
     20318     20317     20330     20333     20319     20318     20317     20322
     20319     20318     20317     20326     20319     20318     20317     20330
     20320     20318     20317     20322     20320     20318     20317     20326
     20320     20318     20317     20330     20321     20318     20317     20322
     20321     20318     20317     20326     20321     20318     20317     20330
     20322     20317     20326     20327     20322     20317     20326     20328
     20322     20317     20326     20329     20322     20317     20330     20331
     20322     20317     20330     20332     20322     20317     20330     20333
     20323     20322     20317     20326     20323     20322     20317     20330
     20324     20322     20317     20326     20324     20322     20317     20330
     20325     20322     20317     20326     20325     20322     20317     20330
     20326     20317     20330     20331     20326     20317     20330     20332
     20326     20317     20330     20333     20327     20326     20317     20330
     20328     20326     20317     20330     20329     20326     20317     20330
     20330     20333     20339     20336     20331     20330     20333     20334
     20331     20330     20333     20335     20331     20330     20333     20339
     20332     20330     20333     20334     20332     20330     20333     20335
     20332     20330     20333     20339     20333     20339     20336     20337
     20333     20339     20336     20338     20333     20339     20336     20340
     20334     20333     20339     20336     20335     20333     20339     20336
     20336     20340     20341     20342     20336     20340     20341     20343
     20336     20340     20341     20344     20337     20336     20340     20341
     20338     20336     20340     20341     20339     20336     20340     20341
     20340     20341     20344     20345     20340     20341     20344     20346
     20340     20341     20344     20352     20341     20344     20346     20347
     20341     20344     20352     20353     20341     20344     20352     20354
     20341     20344     20352     20355     20342     20341     20344     20345
     20342     20341     20344     20346     20342     20341     20344     20352
     20343     20341     20344     20345     20343     20341     20344     20346
     20343     20341     20344     20352     20344     20346     20347     20348
     20344     20346     20347     20349     20344     20352     20355     20356
     20345     20344     20346     20347     20345     20344     20352     20353
     20345     20344     20352     20354     20345     20344     20352     20355
     20346     20344     20352     20353     20346     20344     20352     20354
     20346     20344     20352     20355     20346     20347     20349     20350
     20346     20347     20349     20351     20346     20347     20349     20361
     20347     20346     20344     20352     20347     20349     20361     20362
     20347     20349     20361     20363     20347     20349     20361     20364
     20348     20347     20349     20350     20348     20347     20349     20351
     20348     20347     20349     20361     20349     20361     20364     20365
     20349     20361     20364     20366     20349     20361     20364     20367
     20350     20349     20361     20362     20350     20349     20361     20363
     20350     20349     20361     20364     20351     20349     20361     20362
     20351     20349     20361     20363     20351     20349     20361     20364
     20352     20355     20356     20357     20352     20355     20356     20358
     20353     20352     20355     20356     20354     20352     20355     20356
     20355     20356     20358     20359     20355     20356     20358     20360
     20355     20356     20358     20406     20356     20358     20406     20407
     20356     20358     20406     20408     20356     20358     20406     20409
     20357     20356     20358     20359     20357     20356     20358     20360
     20357     20356     20358     20406     20358     20406     20409     20410
     20358     20406     20409     20411     20358     20406     20409     20412
     20359     20358     20406     20407     20359     20358     20406     20408
     20359     20358     20406     20409     20360     20358     20406     20407
     20360     20358     20406     20408     20360     20358     20406     20409
     20361     20364     20367     20368     20361     20364     20367     20369
     20361     20364     20367     20370     20362     20361     20364     20365
     20362     20361     20364     20366     20362     20361     20364     20367
     20363     20361     20364     20365     20363     20361     20364     20366
     20363     20361     20364     20367     20364     20367     20370     20371
     20364     20367     20370     20372     20364     20367     20370     20373
     20365     20364     20367     20368     20365     20364     20367     20369
     20365     20364     20367     20370     20366     20364     20367     20368
     20366     20364     20367     20369     20366     20364     20367     20370
     20367     20370     20373     20374     20367     20370     20373     20375
     20367     20370     20373     20376     20368     20367     20370     20371
     20368     20367     20370     20372     20368     20367     20370     20373
     20369     20367     20370     20371     20369     20367     20370     20372
     20369     20367     20370     20373     20370     20373     20376     20377
     20370     20373     20376     20378     20370     20373     20376     20379
     20371     20370     20373     20374     20371     20370     20373     20375
     20371     20370     20373     20376     20372     20370     20373     20374
     20372     20370     20373     20375     20372     20370     20373     20376
     20373     20376     20379     20380     20373     20376     20379     20381
     20374     20373     20376     20377     20374     20373     20376     20378
     20374     20373     20376     20379     20375     20373     20376     20377
     20375     20373     20376     20378     20375     20373     20376     20379
     20376     20379     20381     20382     20376     20379     20381     20383
     20377     20376     20379     20380     20377     20376     20379     20381
     20378     20376     20379     20380     20378     20376     20379     20381
     20379     20381     20383     20384     20379     20381     20383     20385
     20379     20381     20383     20386     20380     20379     20381     20382
     20380     20379     20381     20383     20381     20383     20386     20387
     20381     20383     20386     20388     20382     20381     20383     20384
     20382     20381     20383     20385     20382     20381     20383     20386
     20383     20386     20388     20389     20383     20386     20388     20390
     20384     20383     20386     20387     20384     20383     20386     20388
     20385     20383     20386     20387     20385     20383     20386     20388
     20386     20388     20390     20391     20386     20388     20390     20392
     20386     20388     20390     20393     20387     20386     20388     20389
     20387     20386     20388     20390     20388     20390     20393     20394
     20388     20390     20393     20395     20388     20390     20393     20396
     20389     20388     20390     20391     20389     20388     20390     20392
     20389     20388     20390     20393     20390     20393     20396     20397
     20390     20393     20396     20398     20390     20393     20396     20399
     20391     20390     20393     20394     20391     20390     20393     20395
     20391     20390     20393     20396     20392     20390     20393     20394
     20392     20390     20393     20395     20392     20390     20393     20396
     20393     20396     20399     20400     20393     20396     20399     20401
     20393     20396     20399     20402     20394     20393     20396     20397
     20394     20393     20396     20398     20394     20393     20396     20399
     20395     20393     20396     20397     20395     20393     20396     20398
     20395     20393     20396     20399     20396     20399     20402     20403
     20396     20399     20402     20404     20396     20399     20402     20405
     20397     20396     20399     20400     20397     20396     20399     20401
     20397     20396     20399     20402     20398     20396     20399     20400
     20398     20396     20399     20401     20398     20396     20399     20402
     20400     20399     20402     20403     20400     20399     20402     20404
     20400     20399     20402     20405     20401     20399     20402     20403
     20401     20399     20402     20404     20401     20399     20402     20405
     20406     20409     20412     20413     20406     20409     20412     20414
     20406     20409     20412     20415     20407     20406     20409     20410
     20407     20406     20409     20411     20407     20406     20409     20412
     20408     20406     20409     20410     20408     20406     20409     20411
     20408     20406     20409     20412     20409     20412     20415     20416
     20409     20412     20415     20417     20409     20412     20415     20418
     20410     20409     20412     20413     20410     20409     20412     20414
     20410     20409     20412     20415     20411     20409     20412     20413
     20411     20409     20412     20414     20411     20409     20412     20415
     20412     20415     20418     20419     20412     20415     20418     20420
     20412     20415     20418     20421     20413     20412     20415     20416
     20413     20412     20415     20417     20413     20412     20415     20418
     20414     20412     20415     20416     20414     20412     20415     20417
     20414     20412     20415     20418     20415     20418     20421     20422
     20415     20418     20421     20423     20415     20418     20421     20424
     20416     20415     20418     20419     20416     20415     20418     20420
     20416     20415     20418     20421     20417     20415     20418     20419
     20417     20415     20418     20420     20417     20415     20418     20421
     20418     20421     20424     20425     20418     20421     20424     20426
     20418     20421     20424     20427     20419     20418     20421     20422
     20419     20418     20421     20423     20419     20418     20421     20424
     20420     20418     20421     20422     20420     20418     20421     20423
     20420     20418     20421     20424     20421     20424     20427     20428
     20421     20424     20427     20429     20421     20424     20427     20430
     20422     20421     20424     20425     20422     20421     20424     20426
     20422     20421     20424     20427     20423     20421     20424     20425
     20423     20421     20424     20426     20423     20421     20424     20427
     20424     20427     20430     20431     20424     20427     20430     20432
     20424     20427     20430     20433     20425     20424     20427     20428
     20425     20424     20427     20429     20425     20424     20427     20430
     20426     20424     20427     20428     20426     20424     20427     20429
     20426     20424     20427     20430     20427     20430     20433     20434
     20427     20430     20433     20435     20427     20430     20433     20436
     20428     20427     20430     20431     20428     20427     20430     20432
     20428     20427     20430     20433     20429     20427     20430     20431
     20429     20427     20430     20432     20429     20427     20430     20433
     20430     20433     20436     20437     20430     20433     20436     20438
     20430     20433     20436     20439     20431     20430     20433     20434
     20431     20430     20433     20435     20431     20430     20433     20436
     20432     20430     20433     20434     20432     20430     20433     20435
     20432     20430     20433     20436     20433     20436     20439     20440
     20433     20436     20439     20441     20433     20436     20439     20442
     20434     20433     20436     20437     20434     20433     20436     20438
     20434     20433     20436     20439     20435     20433     20436     20437
     20435     20433     20436     20438     20435     20433     20436     20439
     20436     20439     20442     20443     20436     20439     20442     20444
     20436     20439     20442     20445     20437     20436     20439     20440
     20437     20436     20439     20441     20437     20436     20439     20442
     20438     20436     20439     20440     20438     20436     20439     20441
     20438     20436     20439     20442     20439     20442     20445     20446
     20439     20442     20445     20447     20439     20442     20445     20448
     20440     20439     20442     20443     20440     20439     20442     20444
     20440     20439     20442     20445     20441     20439     20442     20443
     20441     20439     20442     20444     20441     20439     20442     20445
     20442     20445     20448     20449     20442     20445     20448     20450
     20442     20445     20448     20451     20443     20442     20445     20446
     20443     20442     20445     20447     20443     20442     20445     20448
     20444     20442     20445     20446     20444     20442     20445     20447
     20444     20442     20445     20448     20445     20448     20451     20452
     20445     20448     20451     20453     20445     20448     20451     20454
     20446     20445     20448     20449     20446     20445     20448     20450
     20446     20445     20448     20451     20447     20445     20448     20449
     20447     20445     20448     20450     20447     20445     20448     20451
     20449     20448     20451     20452     20449     20448     20451     20453
     20449     20448     20451     20454     20450     20448     20451     20452
     20450     20448     20451     20453     20450     20448     20451     20454
      9217      9218      9233      9234      9217      9218      9233      9235
      9217      9218      9233      9239      9218      9217      9221      9222
      9218      9217      9221      9223      9218      9217      9221      9224
      9218      9217      9225      9226      9218      9217      9225      9227
      9218      9217      9225      9228      9218      9217      9229      9230
      9218      9217      9229      9231      9218      9217      9229      9232
      9218      9233      9239      9236      9219      9218      9217      9221
      9219      9218      9217      9225      9219      9218      9217      9229
      9219      9218      9233      9234      9219      9218      9233      9235
      9219      9218      9233      9239      9220      9218      9217      9221
      9220      9218      9217      9225      9220      9218      9217      9229
      9220      9218      9233      9234      9220      9218      9233      9235
      9220      9218      9233      9239      9221      9217      9218      9233
      9221      9217      9225      9226      9221      9217      9225      9227
      9221      9217      9225      9228      9221      9217      9229      9230
      9221      9217      9229      9231      9221      9217      9229      9232
      9222      9221      9217      9225      9222      9221      9217      9229
      9223      9221      9217      9225      9223      9221      9217      9229
      9224      9221      9217      9225      9224      9221      9217      9229
      9225      9217      9218      9233      9225      9217      9229      9230
      9225      9217      9229      9231      9225      9217      9229      9232
      9226      9225      9217      9229      9227      9225      9217      9229
      9228      9225      9217      9229      9229      9217      9218      9233
      9233      9239      9236      9237      9233      9239      9236      9238
      9233      9239      9236      9240      9234      9233      9239      9236
      9235      9233      9239      9236      9236      9240      9241      9242
      9236      9240      9241      9243      9236      9240      9241      9244
      9237      9236      9240      9241      9238      9236      9240      9241
      9239      9236      9240      9241      9240      9241      9244      9245
      9240      9241      9244      9246      9240      9241      9244      9252
      9241      9244      9246      9247      9241      9244      9252      9253
      9241      9244      9252      9254      9241      9244      9252      9255
      9242      9241      9244      9245      9242      9241      9244      9246
      9242      9241      9244      9252      9243      9241      9244      9245
      9243      9241      9244      9246      9243      9241      9244      9252
      9244      9246      9247      9248      9244      9246      9247      9249
      9244      9252      9255      9256      9245      9244      9246      9247
      9245      9244      9252      9253      9245      9244      9252      9254
      9245      9244      9252      9255      9246      9244      9252      9253
      9246      9244      9252      9254      9246      9244      9252      9255
      9246      9247      9249      9250      9246      9247      9249      9251
      9246      9247      9249      9261      9247      9246      9244      9252
      9247      9249      9261      9262      9247      9249      9261      9263
      9247      9249      9261      9264      9248      9247      9249      9250
      9248      9247      9249      9251      9248      9247      9249      9261
      9249      9261      9264      9265      9249      9261      9264      9266
      9249      9261      9264      9267      9250      9249      9261      9262
      9250      9249      9261      9263      9250      9249      9261      9264
      9251      9249      9261      9262      9251      9249      9261      9263
      9251      9249      9261      9264      9252      9255      9256      9257
      9252      9255      9256      9258      9253      9252      9255      9256
      9254      9252      9255      9256      9255      9256      9258      9259
      9255      9256      9258      9260      9255      9256      9258      9308
      9256      9258      9308      9309      9256      9258      9308      9310
      9256      9258      9308      9311      9257      9256      9258      9259
      9257      9256      9258      9260      9257      9256      9258      9308
      9258      9308      9311      9312      9258      9308      9311      9313
      9258      9308      9311      9314      9259      9258      9308      9309
      9259      9258      9308      9310      9259      9258      9308      9311
      9260      9258      9308      9309      9260      9258      9308      9310
      9260      9258      9308      9311      9261      9264      9267      9268
      9261      9264      9267      9269      9262      9261      9264      9265
      9262      9261      9264      9266      9262      9261      9264      9267
      9263      9261      9264      9265      9263      9261      9264      9266
      9263      9261      9264      9267      9264      9267      9269      9270
      9264      9267      9269      9271      9265      9264      9267      9268
      9265      9264      9267      9269      9266      9264      9267      9268
      9266      9264      9267      9269      9267      9269      9271      9272
      9267      9269      9271      9273      9267      9269      9271      9274
      9268      9267      9269      9270      9268      9267      9269      9271
      9269      9271      9274      9275      9269      9271      9274      9276
      9270      9269      9271      9272      9270      9269      9271      9273
      9270      9269      9271      9274      9271      9274      9276      9277
      9271      9274      9276      9278      9272      9271      9274      9275
      9272      9271      9274      9276      9273      9271      9274      9275
      9273      9271      9274      9276      9274      9276      9278      9279
      9274      9276      9278      9280      9274      9276      9278      9281
      9275      9274      9276      9277      9275      9274      9276      9278
      9276      9278      9281      9282      9276      9278      9281      9283
      9277      9276      9278      9279      9277      9276      9278      9280
      9277      9276      9278      9281      9278      9281      9283      9284
      9278      9281      9283      9285      9279      9278      9281      9282
      9279      9278      9281      9283      9280      9278      9281      9282
      9280      9278      9281      9283      9281      9283      9285      9286
      9281      9283      9285      9287      9281      9283      9285      9288
      9282      9281      9283      9284      9282      9281      9283      9285
      9283      9285      9288      9289      9283      9285      9288      9290
      9284      9283      9285      9286      9284      9283      9285      9287
      9284      9283      9285      9288      9285      9288      9290      9291
      9285      9288      9290      9292      9286      9285      9288      9289
      9286      9285      9288      9290      9287      9285      9288      9289
      9287      9285      9288      9290      9288      9290      9292      9293
      9288      9290      9292      9294      9288      9290      9292      9295
      9289      9288      9290      9291      9289      9288      9290      9292
      9290      9292      9295      9296      9290      9292      9295      9297
      9290      9292      9295      9298      9291      9290      9292      9293
      9291      9290      9292      9294      9291      9290      9292      9295
      9292      9295      9298      9299      9292      9295      9298      9300
      9292      9295      9298      9301      9293      9292      9295      9296
      9293      9292      9295      9297      9293      9292      9295      9298
      9294      9292      9295      9296      9294      9292      9295      9297
      9294      9292      9295      9298      9295      9298      9301      9302
      9295      9298      9301      9303      9295      9298      9301      9304
      9296      9295      9298      9299      9296      9295      9298      9300
      9296      9295      9298      9301      9297      9295      9298      9299
      9297      9295      9298      9300      9297      9295      9298      9301
      9298      9301      9304      9305      9298      9301      9304      9306
      9298      9301      9304      9307      9299      9298      9301      9302
      9299      9298      9301      9303      9299      9298      9301      9304
      9300      9298      9301      9302      9300      9298      9301      9303
      9300      9298      9301      9304      9302      9301      9304      9305
      9302      9301      9304      9306      9302      9301      9304      9307
      9303      9301      9304      9305      9303      9301      9304      9306
      9303      9301      9304      9307      9308      9311      9314      9315
      9308      9311      9314      9316      9308      9311      9314      9317
      9309      9308      9311      9312      9309      9308      9311      9313
      9309      9308      9311      9314      9310      9308      9311      9312
      9310      9308      9311      9313      9310      9308      9311      9314
      9311      9314      9317      9318      9311      9314      9317      9319
      9311      9314      9317      9320      9312      9311      9314      9315
      9312      9311      9314      9316      9312      9311      9314      9317
      9313      9311      9314      9315      9313      9311      9314      9316
      9313      9311      9314      9317      9314      9317      9320      9321
      9314      9317      9320      9322      9314      9317      9320      9323
      9315      9314      9317      9318      9315      9314      9317      9319
      9315      9314      9317      9320      9316      9314      9317      9318
      9316      9314      9317      9319      9316      9314      9317      9320
      9317      9320      9323      9324      9317      9320      9323      9325
      9317      9320      9323      9326      9318      9317      9320      9321
      9318      9317      9320      9322      9318      9317      9320      9323
      9319      9317      9320      9321      9319      9317      9320      9322
      9319      9317      9320      9323      9320      9323      9326      9327
      9320      9323      9326      9328      9320      9323      9326      9329
      9321      9320      9323      9324      9321      9320      9323      9325
      9321      9320      9323      9326      9322      9320      9323      9324
      9322      9320      9323      9325      9322      9320      9323      9326
      9323      9326      9329      9330      9323      9326      9329      9331
      9323      9326      9329      9332      9324      9323      9326      9327
      9324      9323      9326      9328      9324      9323      9326      9329
      9325      9323      9326      9327      9325      9323      9326      9328
      9325      9323      9326      9329      9326      9329      9332      9333
      9326      9329      9332      9334      9326      9329      9332      9335
      9327      9326      9329      9330      9327      9326      9329      9331
      9327      9326      9329      9332      9328      9326      9329      9330
      9328      9326      9329      9331      9328      9326      9329      9332
      9329      9332      9335      9336      9329      9332      9335      9337
      9329      9332      9335      9338      9330      9329      9332      9333
      9330      9329      9332      9334      9330      9329      9332      9335
      9331      9329      9332      9333      9331      9329      9332      9334
      9331      9329      9332      9335      9332      9335      9338      9339
      9332      9335      9338      9340      9332      9335      9338      9341
      9333      9332      9335      9336      9333      9332      9335      9337
      9333      9332      9335      9338      9334      9332      9335      9336
      9334      9332      9335      9337      9334      9332      9335      9338
      9335      9338      9341      9342      9335      9338      9341      9343
      9335      9338      9341      9344      9336      9335      9338      9339
      9336      9335      9338      9340      9336      9335      9338      9341
      9337      9335      9338      9339      9337      9335      9338      9340
      9337      9335      9338      9341      9338      9341      9344      9345
      9338      9341      9344      9346      9338      9341      9344      9347
      9339      9338      9341      9342      9339      9338      9341      9343
      9339      9338      9341      9344      9340      9338      9341      9342
      9340      9338      9341      9343      9340      9338      9341      9344
      9341      9344      9347      9348      9341      9344      9347      9349
      9341      9344      9347      9350      9342      9341      9344      9345
      9342      9341      9344      9346      9342      9341      9344      9347
      9343      9341      9344      9345      9343      9341      9344      9346
      9343      9341      9344      9347      9344      9347      9350      9351
      9344      9347      9350      9352      9344      9347      9350      9353
      9345      9344      9347      9348      9345      9344      9347      9349
      9345      9344      9347      9350      9346      9344      9347      9348
      9346      9344      9347      9349      9346      9344      9347      9350
      9347      9350      9353      9354      9347      9350      9353      9355
      9347      9350      9353      9356      9348      9347      9350      9351
      9348      9347      9350      9352      9348      9347      9350      9353
      9349      9347      9350      9351      9349      9347      9350      9352
      9349      9347      9350      9353      9351      9350      9353      9354
      9351      9350      9353      9355      9351      9350      9353      9356
      9352      9350      9353      9354      9352      9350      9353      9355
      9352      9350      9353      9356      4955      4959      4962      4963
      4955      4959      4962      4993      4955      5001      4998      4993
      4955      5001      4998      4999      4955      5001      4998      5000
      4956      4955      4957      4958      4956      4955      4959      4960
      4956      4955      4959      4961      4956      4955      4959      4962
      4956      4955      5001      4998      4956      4955      5001      5002
      4956      4955      5001      5003      4957      4955      4959      4960
      4957      4955      4959      4961      4957      4955      4959      4962
      4957      4955      5001      4998      4957      4955      5001      5002
      4957      4955      5001      5003      4958      4957      4955      4959
      4958      4957      4955      5001      4959      4955      5001      4998
      4959      4955      5001      5002      4959      4955      5001      5003
      4959      4962      4963      4964      4959      4962      4963      4965
      4959      4962      4993      4991      4959      4962      4993      4994
      4959      4962      4993      4998      4960      4959      4955      5001
      4960      4959      4962      4963      4960      4959      4962      4993
      4961      4959      4955      5001      4961      4959      4962      4963
      4961      4959      4962      4993      4962      4959      4955      5001
      4962      4963      4965      4966      4962      4963      4965      4967
      4962      4963      4965      4968      4962      4993      4991      4968
      4962      4993      4991      4988      4962      4993      4991      4992
      4962      4993      4994      4995      4962      4993      4994      4996
      4962      4993      4994      4997      4962      4993      4998      4999
      4962      4993      4998      5000      4962      4993      4998      5001
      4963      4962      4993      4991      4963      4962      4993      4994
      4963      4962      4993      4998      4963      4965      4968      4969
      4963      4965      4968      4970      4963      4965      4968      4991
      4964      4963      4962      4993      4964      4963      4965      4966
      4964      4963      4965      4967      4964      4963      4965      4968
      4965      4963      4962      4993      4965      4968      4970      4971
      4965      4968      4970      4972      4965      4968      4970      4980
      4965      4968      4991      4988      4965      4968      4991      4992
      4965      4968      4991      4993      4966      4965      4968      4969
      4966      4965      4968      4970      4966      4965      4968      4991
      4967      4965      4968      4969      4967      4965      4968      4970
      4967      4965      4968      4991      4968      4970      4972      4973
      4968      4970      4972      4974      4968      4970      4972      4975
      4968      4970      4980      4978      4968      4970      4980      4981
      4968      4970      4980      4985      4968      4991      4988      4985
      4968      4991      4988      4989      4968      4991      4988      4990
      4968      4991      4993      4994      4968      4991      4993      4998
      4969      4968      4970      4971      4969      4968      4970      4972
      4969      4968      4970      4980      4969      4968      4991      4988
      4969      4968      4991      4992      4969      4968      4991      4993
      4970      4968      4991      4988      4970      4968      4991      4992
      4970      4968      4991      4993      4970      4972      4975      4976
      4970      4972      4975      4977      4970      4972      4975      4978
      4970      4980      4978      4975      4970      4980      4978      4979
      4970      4980      4978      5004      4970      4980      4981      4982
      4970      4980      4981      4983      4970      4980      4981      4984
      4970      4980      4985      4986      4970      4980      4985      4987
      4970      4980      4985      4988      4971      4970      4968      4991
      4971      4970      4972      4973      4971      4970      4972      4974
      4971      4970      4972      4975      4971      4970      4980      4978
      4971      4970      4980      4981      4971      4970      4980      4985
      4972      4970      4968      4991      4972      4970      4980      4978
      4972      4970      4980      4981      4972      4970      4980      4985
      4972      4975      4978      4979      4972      4975      4978      4980
      4972      4975      4978      5004      4973      4972      4970      4980
      4973      4972      4975      4976      4973      4972      4975      4977
      4973      4972      4975      4978      4974      4972      4970      4980
      4974      4972      4975      4976      4974      4972      4975      4977
      4974      4972      4975      4978      4975      4972      4970      4980
      4975      4978      4980      4981      4975      4978      4980      4985
      4975      4978      5004      5005      4975      4978      5004      5006
      4975      4978      5004      5010      4976      4975      4978      4979
      4976      4975      4978      4980      4976      4975      4978      5004
      4977      4975      4978      4979      4977      4975      4978      4980
      4977      4975      4978      5004      4978      4980      4981      4982
      4978      4980      4981      4983      4978      4980      4981      4984
      4978      4980      4985      4986      4978      4980      4985      4987
      4978      4980      4985      4988      4978      5004      5006      5007
      4978      5004      5006      5008      4978      5004      5006      5009
      4978      5004      5010      5011      4978      5004      5010      5012
      4978      5004      5010      5013      4979      4978      4980      4981
      4979      4978      4980      4985      4979      4978      5004      5005
      4979      4978      5004      5006      4979      4978      5004      5010
      4980      4970      4968      4991      4980      4978      5004      5005
      4980      4978      5004      5006      4980      4978      5004      5010
      4980      4985      4988      4989      4980      4985      4988      4990
      4980      4985      4988      4991      4981      4980      4978      5004
      4981      4980      4985      4986      4981      4980      4985      4987
      4981      4980      4985      4988      4982      4981      4980      4985
      4983      4981      4980      4985      4984      4981      4980      4985
      4985      4980      4978      5004      4985      4988      4991      4992
      4985      4988      4991      4993      4986      4985      4988      4989
      4986      4985      4988      4990      4986      4985      4988      4991
      4987      4985      4988      4989      4987      4985      4988      4990
      4987      4985      4988      4991      4988      4991      4993      4994
      4988      4991      4993      4998      4989      4988      4991      4992
      4989      4988      4991      4993      4990      4988      4991      4992
      4990      4988      4991      4993      4991      4993      4994      4995
      4991      4993      4994      4996      4991      4993      4994      4997
      4991      4993      4998      4999      4991      4993      4998      5000
      4991      4993      4998      5001      4992      4991      4993      4994
      4992      4991      4993      4998      4993      4998      5001      5002
      4993      4998      5001      5003      4994      4993      4998      4999
      4994      4993      4998      5000      4994      4993      4998      5001
      4995      4994      4993      4998      4996      4994      4993      4998
      4997      4994      4993      4998      4999      4998      5001      5002
      4999      4998      5001      5003      5000      4998      5001      5002
      5000      4998      5001      5003      5004      5010      5013      5014
      5004      5010      5013      5015      5004      5010      5013      5016
      5005      5004      5006      5007      5005      5004      5006      5008
      5005      5004      5006      5009      5005      5004      5010      5011
      5005      5004      5010      5012      5005      5004      5010      5013
      5006      5004      5010      5011      5006      5004      5010      5012
      5006      5004      5010      5013      5007      5006      5004      5010
      5008      5006      5004      5010      5009      5006      5004      5010
      5010      5013      5016      5017      5010      5013      5016      5018
      5010      5013      5016      5019      5011      5010      5013      5014
      5011      5010      5013      5015      5011      5010      5013      5016
      5012      5010      5013      5014      5012      5010      5013      5015
      5012      5010      5013      5016      5013      5016      5019      5020
      5013      5016      5019      5021      5013      5016      5019      5025
      5014      5013      5016      5017      5014      5013      5016      5018
      5014      5013      5016      5019      5015      5013      5016      5017
      5015      5013      5016      5018      5015      5013      5016      5019
      5016      5019      5021      5022      5016      5019      5021      5023
      5016      5019      5021      5024      5016      5019      5025      5026
      5016      5019      5025      5027      5016      5019      5025      5028
      5017      5016      5019      5020      5017      5016      5019      5021
      5017      5016      5019      5025      5018      5016      5019      5020
      5018      5016      5019      5021      5018      5016      5019      5025
      5020      5019      5021      5022      5020      5019      5021      5023
      5020      5019      5021      5024      5020      5019      5025      5026
      5020      5019      5025      5027      5020      5019      5025      5028
      5021      5019      5025      5026      5021      5019      5025      5027
      5021      5019      5025      5028      5022      5021      5019      5025
      5023      5021      5019      5025      5024      5021      5019      5025
      5029      5033      5036      5037      5029      5033      5036      5067
      5029      5075      5072      5067      5029      5075      5072      5073
      5029      5075      5072      5074      5030      5029      5031      5032
      5030      5029      5033      5034      5030      5029      5033      5035
      5030      5029      5033      5036      5030      5029      5075      5072
      5030      5029      5075      5076      5030      5029      5075      5077
      5031      5029      5033      5034      5031      5029      5033      5035
      5031      5029      5033      5036      5031      5029      5075      5072
      5031      5029      5075      5076      5031      5029      5075      5077
      5032      5031      5029      5033      5032      5031      5029      5075
      5033      5029      5075      5072      5033      5029      5075      5076
      5033      5029      5075      5077      5033      5036      5037      5038
      5033      5036      5037      5039      5033      5036      5067      5065
      5033      5036      5067      5068      5033      5036      5067      5072
      5034      5033      5029      5075      5034      5033      5036      5037
      5034      5033      5036      5067      5035      5033      5029      5075
      5035      5033      5036      5037      5035      5033      5036      5067
      5036      5033      5029      5075      5036      5037      5039      5040
      5036      5037      5039      5041      5036      5037      5039      5042
      5036      5067      5065      5042      5036      5067      5065      5062
      5036      5067      5065      5066      5036      5067      5068      5069
      5036      5067      5068      5070      5036      5067      5068      5071
      5036      5067      5072      5073      5036      5067      5072      5074
      5036      5067      5072      5075      5037      5036      5067      5065
      5037      5036      5067      5068      5037      5036      5067      5072
      5037      5039      5042      5043      5037      5039      5042      5044
      5037      5039      5042      5065      5038      5037      5036      5067
      5038      5037      5039      5040      5038      5037      5039      5041
      5038      5037      5039      5042      5039      5037      5036      5067
      5039      5042      5044      5045      5039      5042      5044      5046
      5039      5042      5044      5054      5039      5042      5065      5062
      5039      5042      5065      5066      5039      5042      5065      5067
      5040      5039      5042      5043      5040      5039      5042      5044
      5040      5039      5042      5065      5041      5039      5042      5043
      5041      5039      5042      5044      5041      5039      5042      5065
      5042      5044      5046      5047      5042      5044      5046      5048
      5042      5044      5046      5049      5042      5044      5054      5052
      5042      5044      5054      5055      5042      5044      5054      5059
      5042      5065      5062      5059      5042      5065      5062      5063
      5042      5065      5062      5064      5042      5065      5067      5068
      5042      5065      5067      5072      5043      5042      5044      5045
      5043      5042      5044      5046      5043      5042      5044      5054
      5043      5042      5065      5062      5043      5042      5065      5066
      5043      5042      5065      5067      5044      5042      5065      5062
      5044      5042      5065      5066      5044      5042      5065      5067
      5044      5046      5049      5050      5044      5046      5049      5051
      5044      5046      5049      5052      5044      5054      5052      5049
      5044      5054      5052      5053      5044      5054      5052      5078
      5044      5054      5055      5056      5044      5054      5055      5057
      5044      5054      5055      5058      5044      5054      5059      5060
      5044      5054      5059      5061      5044      5054      5059      5062
      5045      5044      5042      5065      5045      5044      5046      5047
      5045      5044      5046      5048      5045      5044      5046      5049
      5045      5044      5054      5052      5045      5044      5054      5055
      5045      5044      5054      5059      5046      5044      5042      5065
      5046      5044      5054      5052      5046      5044      5054      5055
      5046      5044      5054      5059      5046      5049      5052      5053
      5046      5049      5052      5054      5046      5049      5052      5078
      5047      5046      5044      5054      5047      5046      5049      5050
      5047      5046      5049      5051      5047      5046      5049      5052
      5048      5046      5044      5054      5048      5046      5049      5050
      5048      5046      5049      5051      5048      5046      5049      5052
      5049      5046      5044      5054      5049      5052      5054      5055
      5049      5052      5054      5059      5049      5052      5078      5079
      5049      5052      5078      5080      5049      5052      5078      5084
      5050      5049      5052      5053      5050      5049      5052      5054
      5050      5049      5052      5078      5051      5049      5052      5053
      5051      5049      5052      5054      5051      5049      5052      5078
      5052      5054      5055      5056      5052      5054      5055      5057
      5052      5054      5055      5058      5052      5054      5059      5060
      5052      5054      5059      5061      5052      5054      5059      5062
      5052      5078      5080      5081      5052      5078      5080      5082
      5052      5078      5080      5083      5052      5078      5084      5085
      5052      5078      5084      5086      5052      5078      5084      5087
      5053      5052      5054      5055      5053      5052      5054      5059
      5053      5052      5078      5079      5053      5052      5078      5080
      5053      5052      5078      5084      5054      5044      5042      5065
      5054      5052      5078      5079      5054      5052      5078      5080
      5054      5052      5078      5084      5054      5059      5062      5063
      5054      5059      5062      5064      5054      5059      5062      5065
      5055      5054      5052      5078      5055      5054      5059      5060
      5055      5054      5059      5061      5055      5054      5059      5062
      5056      5055      5054      5059      5057      5055      5054      5059
      5058      5055      5054      5059      5059      5054      5052      5078
      5059      5062      5065      5066      5059      5062      5065      5067
      5060      5059      5062      5063      5060      5059      5062      5064
      5060      5059      5062      5065      5061      5059      5062      5063
      5061      5059      5062      5064      5061      5059      5062      5065
      5062      5065      5067      5068      5062      5065      5067      5072
      5063      5062      5065      5066      5063      5062      5065      5067
      5064      5062      5065      5066      5064      5062      5065      5067
      5065      5067      5068      5069      5065      5067      5068      5070
      5065      5067      5068      5071      5065      5067      5072      5073
      5065      5067      5072      5074      5065      5067      5072      5075
      5066      5065      5067      5068      5066      5065      5067      5072
      5067      5072      5075      5076      5067      5072      5075      5077
      5068      5067      5072      5073      5068      5067      5072      5074
      5068      5067      5072      5075      5069      5068      5067      5072
      5070      5068      5067      5072      5071      5068      5067      5072
      5073      5072      5075      5076      5073      5072      5075      5077
      5074      5072      5075      5076      5074      5072      5075      5077
      5078      5084      5087      5088      5078      5084      5087      5089
      5078      5084      5087      5090      5079      5078      5080      5081
      5079      5078      5080      5082      5079      5078      5080      5083
      5079      5078      5084      5085      5079      5078      5084      5086
      5079      5078      5084      5087      5080      5078      5084      5085
      5080      5078      5084      5086      5080      5078      5084      5087
      5081      5080      5078      5084      5082      5080      5078      5084
      5083      5080      5078      5084      5084      5087      5090      5091
      5084      5087      5090      5092      5084      5087      5090      5093
      5085      5084      5087      5088      5085      5084      5087      5089
      5085      5084      5087      5090      5086      5084      5087      5088
      5086      5084      5087      5089      5086      5084      5087      5090
      5087      5090      5093      5094      5087      5090      5093      5095
      5087      5090      5093      5099      5088      5087      5090      5091
      5088      5087      5090      5092      5088      5087      5090      5093
      5089      5087      5090      5091      5089      5087      5090      5092
      5089      5087      5090      5093      5090      5093      5095      5096
      5090      5093      5095      5097      5090      5093      5095      5098
      5090      5093      5099      5100      5090      5093      5099      5101
      5090      5093      5099      5102      5091      5090      5093      5094
      5091      5090      5093      5095      5091      5090      5093      5099
      5092      5090      5093      5094      5092      5090      5093      5095
      5092      5090      5093      5099      5094      5093      5095      5096
      5094      5093      5095      5097      5094      5093      5095      5098
      5094      5093      5099      5100      5094      5093      5099      5101
      5094      5093      5099      5102      5095      5093      5099      5100
      5095      5093      5099      5101      5095      5093      5099      5102
      5096      5095      5093      5099      5097      5095      5093      5099
      5098      5095      5093      5099     17655     17659     17662     17663
     17655     17659     17662     17664     17655     17659     17662     17668
     17656     17655     17659     17660     17656     17655     17659     17661
     17656     17655     17659     17662     17657     17655     17659     17660
     17657     17655     17659     17661     17657     17655     17659     17662
     17658     17655     17659     17660     17658     17655     17659     17661
     17658     17655     17659     17662     17659     17662     17668     17665
     17660     17659     17662     17663     17660     17659     17662     17664
     17660     17659     17662     17668     17661     17659     17662     17663
     17661     17659     17662     17664     17661     17659     17662     17668
     17662     17668     17665     17666     17662     17668     17665     17667
     17662     17668     17665     17669     17663     17662     17668     17665
     17664     17662     17668     17665     17665     17669     17670     17671
     17665     17669     17670     17672     17665     17669     17670     17673
     17666     17665     17669     17670     17667     17665     17669     17670
     17668     17665     17669     17670     17669     17670     17673     17674
     17669     17670     17673     17675     17669     17670     17673     17681
     17670     17673     17675     17676     17670     17673     17681     17682
     17670     17673     17681     17683     17670     17673     17681     17684
     17671     17670     17673     17674     17671     17670     17673     17675
     17671     17670     17673     17681     17672     17670     17673     17674
     17672     17670     17673     17675     17672     17670     17673     17681
     17673     17675     17676     17677     17673     17675     17676     17678
     17673     17681     17684     17685     17674     17673     17675     17676
     17674     17673     17681     17682     17674     17673     17681     17683
     17674     17673     17681     17684     17675     17673     17681     17682
     17675     17673     17681     17683     17675     17673     17681     17684
     17675     17676     17678     17679     17675     17676     17678     17680
     17675     17676     17678     17690     17676     17675     17673     17681
     17676     17678     17690     17691     17676     17678     17690     17692
     17676     17678     17690     17693     17677     17676     17678     17679
     17677     17676     17678     17680     17677     17676     17678     17690
     17678     17690     17693     17694     17678     17690     17693     17695
     17678     17690     17693     17696     17679     17678     17690     17691
     17679     17678     17690     17692     17679     17678     17690     17693
     17680     17678     17690     17691     17680     17678     17690     17692
     17680     17678     17690     17693     17681     17684     17685     17686
     17681     17684     17685     17687     17682     17681     17684     17685
     17683     17681     17684     17685     17684     17685     17687     17688
     17684     17685     17687     17689     17684     17685     17687     17737
     17685     17687     17737     17738     17685     17687     17737     17739
     17685     17687     17737     17740     17686     17685     17687     17688
     17686     17685     17687     17689     17686     17685     17687     17737
     17687     17737     17740     17741     17687     17737     17740     17742
     17687     17737     17740     17743     17688     17687     17737     17738
     17688     17687     17737     17739     17688     17687     17737     17740
     17689     17687     17737     17738     17689     17687     17737     17739
     17689     17687     17737     17740     17690     17693     17696     17697
     17690     17693     17696     17698     17691     17690     17693     17694
     17691     17690     17693     17695     17691     17690     17693     17696
     17692     17690     17693     17694     17692     17690     17693     17695
     17692     17690     17693     17696     17693     17696     17698     17699
     17693     17696     17698     17700     17694     17693     17696     17697
     17694     17693     17696     17698     17695     17693     17696     17697
     17695     17693     17696     17698     17696     17698     17700     17701
     17696     17698     17700     17702     17696     17698     17700     17703
     17697     17696     17698     17699     17697     17696     17698     17700
     17698     17700     17703     17704     17698     17700     17703     17705
     17699     17698     17700     17701     17699     17698     17700     17702
     17699     17698     17700     17703     17700     17703     17705     17706
     17700     17703     17705     17707     17701     17700     17703     17704
     17701     17700     17703     17705     17702     17700     17703     17704
     17702     17700     17703     17705     17703     17705     17707     17708
     17703     17705     17707     17709     17703     17705     17707     17710
     17704     17703     17705     17706     17704     17703     17705     17707
     17705     17707     17710     17711     17705     17707     17710     17712
     17706     17705     17707     17708     17706     17705     17707     17709
     17706     17705     17707     17710     17707     17710     17712     17713
     17707     17710     17712     17714     17708     17707     17710     17711
     17708     17707     17710     17712     17709     17707     17710     17711
     17709     17707     17710     17712     17710     17712     17714     17715
     17710     17712     17714     17716     17710     17712     17714     17717
     17711     17710     17712     17713     17711     17710     17712     17714
     17712     17714     17717     17718     17712     17714     17717     17719
     17713     17712     17714     17715     17713     17712     17714     17716
     17713     17712     17714     17717     17714     17717     17719     17720
     17714     17717     17719     17721     17715     17714     17717     17718
     17715     17714     17717     17719     17716     17714     17717     17718
     17716     17714     17717     17719     17717     17719     17721     17722
     17717     17719     17721     17723     17717     17719     17721     17724
     17718     17717     17719     17720     17718     17717     17719     17721
     17719     17721     17724     17725     17719     17721     17724     17726
     17719     17721     17724     17727     17720     17719     17721     17722
     17720     17719     17721     17723     17720     17719     17721     17724
     17721     17724     17727     17728     17721     17724     17727     17729
     17721     17724     17727     17730     17722     17721     17724     17725
     17722     17721     17724     17726     17722     17721     17724     17727
     17723     17721     17724     17725     17723     17721     17724     17726
     17723     17721     17724     17727     17724     17727     17730     17731
     17724     17727     17730     17732     17724     17727     17730     17733
     17725     17724     17727     17728     17725     17724     17727     17729
     17725     17724     17727     17730     17726     17724     17727     17728
     17726     17724     17727     17729     17726     17724     17727     17730
     17727     17730     17733     17734     17727     17730     17733     17735
     17727     17730     17733     17736     17728     17727     17730     17731
     17728     17727     17730     17732     17728     17727     17730     17733
     17729     17727     17730     17731     17729     17727     17730     17732
     17729     17727     17730     17733     17731     17730     17733     17734
     17731     17730     17733     17735     17731     17730     17733     17736
     17732     17730     17733     17734     17732     17730     17733     17735
     17732     17730     17733     17736     17737     17740     17743     17744
     17737     17740     17743     17745     17737     17740     17743     17746
     17738     17737     17740     17741     17738     17737     17740     17742
     17738     17737     17740     17743     17739     17737     17740     17741
     17739     17737     17740     17742     17739     17737     17740     17743
     17740     17743     17746     17747     17740     17743     17746     17748
     17740     17743     17746     17749     17741     17740     17743     17744
     17741     17740     17743     17745     17741     17740     17743     17746
     17742     17740     17743     17744     17742     17740     17743     17745
     17742     17740     17743     17746     17743     17746     17749     17750
     17743     17746     17749     17751     17743     17746     17749     17752
     17744     17743     17746     17747     17744     17743     17746     17748
     17744     17743     17746     17749     17745     17743     17746     17747
     17745     17743     17746     17748     17745     17743     17746     17749
     17746     17749     17752     17753     17746     17749     17752     17754
     17746     17749     17752     17755     17747     17746     17749     17750
     17747     17746     17749     17751     17747     17746     17749     17752
     17748     17746     17749     17750     17748     17746     17749     17751
     17748     17746     17749     17752     17749     17752     17755     17756
     17749     17752     17755     17757     17749     17752     17755     17758
     17750     17749     17752     17753     17750     17749     17752     17754
     17750     17749     17752     17755     17751     17749     17752     17753
     17751     17749     17752     17754     17751     17749     17752     17755
     17752     17755     17758     17759     17752     17755     17758     17760
     17752     17755     17758     17761     17753     17752     17755     17756
     17753     17752     17755     17757     17753     17752     17755     17758
     17754     17752     17755     17756     17754     17752     17755     17757
     17754     17752     17755     17758     17755     17758     17761     17762
     17755     17758     17761     17763     17755     17758     17761     17764
     17756     17755     17758     17759     17756     17755     17758     17760
     17756     17755     17758     17761     17757     17755     17758     17759
     17757     17755     17758     17760     17757     17755     17758     17761
     17758     17761     17764     17765     17758     17761     17764     17766
     17758     17761     17764     17767     17759     17758     17761     17762
     17759     17758     17761     17763     17759     17758     17761     17764
     17760     17758     17761     17762     17760     17758     17761     17763
     17760     17758     17761     17764     17761     17764     17767     17768
     17761     17764     17767     17769     17761     17764     17767     17770
     17762     17761     17764     17765     17762     17761     17764     17766
     17762     17761     17764     17767     17763     17761     17764     17765
     17763     17761     17764     17766     17763     17761     17764     17767
     17764     17767     17770     17771     17764     17767     17770     17772
     17764     17767     17770     17773     17765     17764     17767     17768
     17765     17764     17767     17769     17765     17764     17767     17770
     17766     17764     17767     17768     17766     17764     17767     17769
     17766     17764     17767     17770     17767     17770     17773     17774
     17767     17770     17773     17775     17767     17770     17773     17776
     17768     17767     17770     17771     17768     17767     17770     17772
     17768     17767     17770     17773     17769     17767     17770     17771
     17769     17767     17770     17772     17769     17767     17770     17773
     17770     17773     17776     17777     17770     17773     17776     17778
     17770     17773     17776     17779     17771     17770     17773     17774
     17771     17770     17773     17775     17771     17770     17773     17776
     17772     17770     17773     17774     17772     17770     17773     17775
     17772     17770     17773     17776     17773     17776     17779     17780
     17773     17776     17779     17781     17773     17776     17779     17782
     17774     17773     17776     17777     17774     17773     17776     17778
     17774     17773     17776     17779     17775     17773     17776     17777
     17775     17773     17776     17778     17775     17773     17776     17779
     17776     17779     17782     17783     17776     17779     17782     17784
     17776     17779     17782     17785     17777     17776     17779     17780
     17777     17776     17779     17781     17777     17776     17779     17782
     17778     17776     17779     17780     17778     17776     17779     17781
     17778     17776     17779     17782     17780     17779     17782     17783
     17780     17779     17782     17784     17780     17779     17782     17785
     17781     17779     17782     17783     17781     17779     17782     17784
     17781     17779     17782     17785      9357      9358      9373      9374
      9357      9358      9373      9375      9357      9358      9373      9379
      9358      9357      9361      9362      9358      9357      9361      9363
      9358      9357      9361      9364      9358      9357      9365      9366
      9358      9357      9365      9367      9358      9357      9365      9368
      9358      9357      9369      9370      9358      9357      9369      9371
      9358      9357      9369      9372      9358      9373      9379      9376
      9359      9358      9357      9361      9359      9358      9357      9365
      9359      9358      9357      9369      9359      9358      9373      9374
      9359      9358      9373      9375      9359      9358      9373      9379
      9360      9358      9357      9361      9360      9358      9357      9365
      9360      9358      9357      9369      9360      9358      9373      9374
      9360      9358      9373      9375      9360      9358      9373      9379
      9361      9357      9358      9373      9361      9357      9365      9366
      9361      9357      9365      9367      9361      9357      9365      9368
      9361      9357      9369      9370      9361      9357      9369      9371
      9361      9357      9369      9372      9362      9361      9357      9365
      9362      9361      9357      9369      9363      9361      9357      9365
      9363      9361      9357      9369      9364      9361      9357      9365
      9364      9361      9357      9369      9365      9357      9358      9373
      9365      9357      9369      9370      9365      9357      9369      9371
      9365      9357      9369      9372      9366      9365      9357      9369
      9367      9365      9357      9369      9368      9365      9357      9369
      9369      9357      9358      9373      9373      9379      9376      9377
      9373      9379      9376      9378      9373      9379      9376      9380
      9374      9373      9379      9376      9375      9373      9379      9376
      9376      9380      9381      9382      9376      9380      9381      9383
      9376      9380      9381      9384      9377      9376      9380      9381
      9378      9376      9380      9381      9379      9376      9380      9381
      9380      9381      9384      9385      9380      9381      9384      9386
      9380      9381      9384      9392      9381      9384      9386      9387
      9381      9384      9392      9393      9381      9384      9392      9394
      9381      9384      9392      9395      9382      9381      9384      9385
      9382      9381      9384      9386      9382      9381      9384      9392
      9383      9381      9384      9385      9383      9381      9384      9386
      9383      9381      9384      9392      9384      9386      9387      9388
      9384      9386      9387      9389      9384      9392      9395      9396
      9385      9384      9386      9387      9385      9384      9392      9393
      9385      9384      9392      9394      9385      9384      9392      9395
      9386      9384      9392      9393      9386      9384      9392      9394
      9386      9384      9392      9395      9386      9387      9389      9390
      9386      9387      9389      9391      9386      9387      9389      9401
      9387      9386      9384      9392      9387      9389      9401      9402
      9387      9389      9401      9403      9387      9389      9401      9404
      9388      9387      9389      9390      9388      9387      9389      9391
      9388      9387      9389      9401      9389      9401      9404      9405
      9389      9401      9404      9406      9389      9401      9404      9407
      9390      9389      9401      9402      9390      9389      9401      9403
      9390      9389      9401      9404      9391      9389      9401      9402
      9391      9389      9401      9403      9391      9389      9401      9404
      9392      9395      9396      9397      9392      9395      9396      9398
      9393      9392      9395      9396      9394      9392      9395      9396
      9395      9396      9398      9399      9395      9396      9398      9400
      9395      9396      9398      9448      9396      9398      9448      9449
      9396      9398      9448      9450      9396      9398      9448      9451
      9397      9396      9398      9399      9397      9396      9398      9400
      9397      9396      9398      9448      9398      9448      9451      9452
      9398      9448      9451      9453      9398      9448      9451      9454
      9399      9398      9448      9449      9399      9398      9448      9450
      9399      9398      9448      9451      9400      9398      9448      9449
      9400      9398      9448      9450      9400      9398      9448      9451
      9401      9404      9407      9408      9401      9404      9407      9409
      9402      9401      9404      9405      9402      9401      9404      9406
      9402      9401      9404      9407      9403      9401      9404      9405
      9403      9401      9404      9406      9403      9401      9404      9407
      9404      9407      9409      9410      9404      9407      9409      9411
      9405      9404      9407      9408      9405      9404      9407      9409
      9406      9404      9407      9408      9406      9404      9407      9409
      9407      9409      9411      9412      9407      9409      9411      9413
      9407      9409      9411      9414      9408      9407      9409      9410
      9408      9407      9409      9411      9409      9411      9414      9415
      9409      9411      9414      9416      9410      9409      9411      9412
      9410      9409      9411      9413      9410      9409      9411      9414
      9411      9414      9416      9417      9411      9414      9416      9418
      9412      9411      9414      9415      9412      9411      9414      9416
      9413      9411      9414      9415      9413      9411      9414      9416
      9414      9416      9418      9419      9414      9416      9418      9420
      9414      9416      9418      9421      9415      9414      9416      9417
      9415      9414      9416      9418      9416      9418      9421      9422
      9416      9418      9421      9423      9417      9416      9418      9419
      9417      9416      9418      9420      9417      9416      9418      9421
      9418      9421      9423      9424      9418      9421      9423      9425
      9419      9418      9421      9422      9419      9418      9421      9423
      9420      9418      9421      9422      9420      9418      9421      9423
      9421      9423      9425      9426      9421      9423      9425      9427
      9421      9423      9425      9428      9422      9421      9423      9424
      9422      9421      9423      9425      9423      9425      9428      9429
      9423      9425      9428      9430      9424      9423      9425      9426
      9424      9423      9425      9427      9424      9423      9425      9428
      9425      9428      9430      9431      9425      9428      9430      9432
      9426      9425      9428      9429      9426      9425      9428      9430
      9427      9425      9428      9429      9427      9425      9428      9430
      9428      9430      9432      9433      9428      9430      9432      9434
      9428      9430      9432      9435      9429      9428      9430      9431
      9429      9428      9430      9432      9430      9432      9435      9436
      9430      9432      9435      9437      9430      9432      9435      9438
      9431      9430      9432      9433      9431      9430      9432      9434
      9431      9430      9432      9435      9432      9435      9438      9439
      9432      9435      9438      9440      9432      9435      9438      9441
      9433      9432      9435      9436      9433      9432      9435      9437
      9433      9432      9435      9438      9434      9432      9435      9436
      9434      9432      9435      9437      9434      9432      9435      9438
      9435      9438      9441      9442      9435      9438      9441      9443
      9435      9438      9441      9444      9436      9435      9438      9439
      9436      9435      9438      9440      9436      9435      9438      9441
      9437      9435      9438      9439      9437      9435      9438      9440
      9437      9435      9438      9441      9438      9441      9444      9445
      9438      9441      9444      9446      9438      9441      9444      9447
      9439      9438      9441      9442      9439      9438      9441      9443
      9439      9438      9441      9444      9440      9438      9441      9442
      9440      9438      9441      9443      9440      9438      9441      9444
      9442      9441      9444      9445      9442      9441      9444      9446
      9442      9441      9444      9447      9443      9441      9444      9445
      9443      9441      9444      9446      9443      9441      9444      9447
      9448      9451      9454      9455      9448      9451      9454      9456
      9448      9451      9454      9457      9449      9448      9451      9452
      9449      9448      9451      9453      9449      9448      9451      9454
      9450      9448      9451      9452      9450      9448      9451      9453
      9450      9448      9451      9454      9451      9454      9457      9458
      9451      9454      9457      9459      9451      9454      9457      9460
      9452      9451      9454      9455      9452      9451      9454      9456
      9452      9451      9454      9457      9453      9451      9454      9455
      9453      9451      9454      9456      9453      9451      9454      9457
      9454      9457      9460      9461      9454      9457      9460      9462
      9454      9457      9460      9463      9455      9454      9457      9458
      9455      9454      9457      9459      9455      9454      9457      9460
      9456      9454      9457      9458      9456      9454      9457      9459
      9456      9454      9457      9460      9457      9460      9463      9464
      9457      9460      9463      9465      9457      9460      9463      9466
      9458      9457      9460      9461      9458      9457      9460      9462
      9458      9457      9460      9463      9459      9457      9460      9461
      9459      9457      9460      9462      9459      9457      9460      9463
      9460      9463      9466      9467      9460      9463      9466      9468
      9460      9463      9466      9469      9461      9460      9463      9464
      9461      9460      9463      9465      9461      9460      9463      9466
      9462      9460      9463      9464      9462      9460      9463      9465
      9462      9460      9463      9466      9463      9466      9469      9470
      9463      9466      9469      9471      9463      9466      9469      9472
      9464      9463      9466      9467      9464      9463      9466      9468
      9464      9463      9466      9469      9465      9463      9466      9467
      9465      9463      9466      9468      9465      9463      9466      9469
      9466      9469      9472      9473      9466      9469      9472      9474
      9466      9469      9472      9475      9467      9466      9469      9470
      9467      9466      9469      9471      9467      9466      9469      9472
      9468      9466      9469      9470      9468      9466      9469      9471
      9468      9466      9469      9472      9469      9472      9475      9476
      9469      9472      9475      9477      9469      9472      9475      9478
      9470      9469      9472      9473      9470      9469      9472      9474
      9470      9469      9472      9475      9471      9469      9472      9473
      9471      9469      9472      9474      9471      9469      9472      9475
      9472      9475      9478      9479      9472      9475      9478      9480
      9472      9475      9478      9481      9473      9472      9475      9476
      9473      9472      9475      9477      9473      9472      9475      9478
      9474      9472      9475      9476      9474      9472      9475      9477
      9474      9472      9475      9478      9475      9478      9481      9482
      9475      9478      9481      9483      9475      9478      9481      9484
      9476      9475      9478      9479      9476      9475      9478      9480
      9476      9475      9478      9481      9477      9475      9478      9479
      9477      9475      9478      9480      9477      9475      9478      9481
      9478      9481      9484      9485      9478      9481      9484      9486
      9478      9481      9484      9487      9479      9478      9481      9482
      9479      9478      9481      9483      9479      9478      9481      9484
      9480      9478      9481      9482      9480      9478      9481      9483
      9480      9478      9481      9484      9481      9484      9487      9488
      9481      9484      9487      9489      9481      9484      9487      9490
      9482      9481      9484      9485      9482      9481      9484      9486
      9482      9481      9484      9487      9483      9481      9484      9485
      9483      9481      9484      9486      9483      9481      9484      9487
      9484      9487      9490      9491      9484      9487      9490      9492
      9484      9487      9490      9493      9485      9484      9487      9488
      9485      9484      9487      9489      9485      9484      9487      9490
      9486      9484      9487      9488      9486      9484      9487      9489
      9486      9484      9487      9490      9487      9490      9493      9494
      9487      9490      9493      9495      9487      9490      9493      9496
      9488      9487      9490      9491      9488      9487      9490      9492
      9488      9487      9490      9493      9489      9487      9490      9491
      9489      9487      9490      9492      9489      9487      9490      9493
      9491      9490      9493      9494      9491      9490      9493      9495
      9491      9490      9493      9496      9492      9490      9493      9494
      9492      9490      9493      9495      9492      9490      9493      9496
     20455     20468     20471     20472     20455     20468     20471     20473
     20455     20468     20471     20477     20456     20455     20460     20461
     20456     20455     20460     20462     20456     20455     20460     20463
     20456     20455     20464     20465     20456     20455     20464     20466
     20456     20455     20464     20467     20456     20455     20468     20469
     20456     20455     20468     20470     20456     20455     20468     20471
     20457     20456     20455     20460     20457     20456     20455     20464
     20457     20456     20455     20468     20458     20456     20455     20460
     20458     20456     20455     20464     20458     20456     20455     20468
     20459     20456     20455     20460     20459     20456     20455     20464
     20459     20456     20455     20468     20460     20455     20464     20465
     20460     20455     20464     20466     20460     20455     20464     20467
     20460     20455     20468     20469     20460     20455     20468     20470
     20460     20455     20468     20471     20461     20460     20455     20464
     20461     20460     20455     20468     20462     20460     20455     20464
     20462     20460     20455     20468     20463     20460     20455     20464
     20463     20460     20455     20468     20464     20455     20468     20469
     20464     20455     20468     20470     20464     20455     20468     20471
     20465     20464     20455     20468     20466     20464     20455     20468
     20467     20464     20455     20468     20468     20471     20477     20474
     20469     20468     20471     20472     20469     20468     20471     20473
     20469     20468     20471     20477     20470     20468     20471     20472
     20470     20468     20471     20473     20470     20468     20471     20477
     20471     20477     20474     20475     20471     20477     20474     20476
     20471     20477     20474     20478     20472     20471     20477     20474
     20473     20471     20477     20474     20474     20478     20479     20480
     20474     20478     20479     20481     20474     20478     20479     20482
     20475     20474     20478     20479     20476     20474     20478     20479
     20477     20474     20478     20479     20478     20479     20482     20483
     20478     20479     20482     20484     20478     20479     20482     20490
     20479     20482     20484     20485     20479     20482     20490     20491
     20479     20482     20490     20492     20479     20482     20490     20493
     20480     20479     20482     20483     20480     20479     20482     20484
     20480     20479     20482     20490     20481     20479     20482     20483
     20481     20479     20482     20484     20481     20479     20482     20490
     20482     20484     20485     20486     20482     20484     20485     20487
     20482     20490     20493     20494     20483     20482     20484     20485
     20483     20482     20490     20491     20483     20482     20490     20492
     20483     20482     20490     20493     20484     20482     20490     20491
     20484     20482     20490     20492     20484     20482     20490     20493
     20484     20485     20487     20488     20484     20485     20487     20489
     20484     20485     20487     20499     20485     20484     20482     20490
     20485     20487     20499     20500     20485     20487     20499     20501
     20485     20487     20499     20502     20486     20485     20487     20488
     20486     20485     20487     20489     20486     20485     20487     20499
     20487     20499     20502     20503     20487     20499     20502     20504
     20487     20499     20502     20505     20488     20487     20499     20500
     20488     20487     20499     20501     20488     20487     20499     20502
     20489     20487     20499     20500     20489     20487     20499     20501
     20489     20487     20499     20502     20490     20493     20494     20495
     20490     20493     20494     20496     20491     20490     20493     20494
     20492     20490     20493     20494     20493     20494     20496     20497
     20493     20494     20496     20498     20493     20494     20496     20544
     20494     20496     20544     20545     20494     20496     20544     20546
     20494     20496     20544     20547     20495     20494     20496     20497
     20495     20494     20496     20498     20495     20494     20496     20544
     20496     20544     20547     20548     20496     20544     20547     20549
     20496     20544     20547     20550     20497     20496     20544     20545
     20497     20496     20544     20546     20497     20496     20544     20547
     20498     20496     20544     20545     20498     20496     20544     20546
     20498     20496     20544     20547     20499     20502     20505     20506
     20499     20502     20505     20507     20499     20502     20505     20508
     20500     20499     20502     20503     20500     20499     20502     20504
     20500     20499     20502     20505     20501     20499     20502     20503
     20501     20499     20502     20504     20501     20499     20502     20505
     20502     20505     20508     20509     20502     20505     20508     20510
     20502     20505     20508     20511     20503     20502     20505     20506
     20503     20502     20505     20507     20503     20502     20505     20508
     20504     20502     20505     20506     20504     20502     20505     20507
     20504     20502     20505     20508     20505     20508     20511     20512
     20505     20508     20511     20513     20505     20508     20511     20514
     20506     20505     20508     20509     20506     20505     20508     20510
     20506     20505     20508     20511     20507     20505     20508     20509
     20507     20505     20508     20510     20507     20505     20508     20511
     20508     20511     20514     20515     20508     20511     20514     20516
     20508     20511     20514     20517     20509     20508     20511     20512
     20509     20508     20511     20513     20509     20508     20511     20514
     20510     20508     20511     20512     20510     20508     20511     20513
     20510     20508     20511     20514     20511     20514     20517     20518
     20511     20514     20517     20519     20512     20511     20514     20515
     20512     20511     20514     20516     20512     20511     20514     20517
     20513     20511     20514     20515     20513     20511     20514     20516
     20513     20511     20514     20517     20514     20517     20519     20520
     20514     20517     20519     20521     20515     20514     20517     20518
     20515     20514     20517     20519     20516     20514     20517     20518
     20516     20514     20517     20519     20517     20519     20521     20522
     20517     20519     20521     20523     20517     20519     20521     20524
     20518     20517     20519     20520     20518     20517     20519     20521
     20519     20521     20524     20525     20519     20521     20524     20526
     20520     20519     20521     20522     20520     20519     20521     20523
     20520     20519     20521     20524     20521     20524     20526     20527
     20521     20524     20526     20528     20522     20521     20524     20525
     20522     20521     20524     20526     20523     20521     20524     20525
     20523     20521     20524     20526     20524     20526     20528     20529
     20524     20526     20528     20530     20524     20526     20528     20531
     20525     20524     20526     20527     20525     20524     20526     20528
     20526     20528     20531     20532     20526     20528     20531     20533
     20526     20528     20531     20534     20527     20526     20528     20529
     20527     20526     20528     20530     20527     20526     20528     20531
     20528     20531     20534     20535     20528     20531     20534     20536
     20528     20531     20534     20537     20529     20528     20531     20532
     20529     20528     20531     20533     20529     20528     20531     20534
     20530     20528     20531     20532     20530     20528     20531     20533
     20530     20528     20531     20534     20531     20534     20537     20538
     20531     20534     20537     20539     20531     20534     20537     20540
     20532     20531     20534     20535     20532     20531     20534     20536
     20532     20531     20534     20537     20533     20531     20534     20535
     20533     20531     20534     20536     20533     20531     20534     20537
     20534     20537     20540     20541     20534     20537     20540     20542
     20534     20537     20540     20543     20535     20534     20537     20538
     20535     20534     20537     20539     20535     20534     20537     20540
     20536     20534     20537     20538     20536     20534     20537     20539
     20536     20534     20537     20540     20538     20537     20540     20541
     20538     20537     20540     20542     20538     20537     20540     20543
     20539     20537     20540     20541     20539     20537     20540     20542
     20539     20537     20540     20543     20544     20547     20550     20551
     20544     20547     20550     20552     20544     20547     20550     20553
     20545     20544     20547     20548     20545     20544     20547     20549
     20545     20544     20547     20550     20546     20544     20547     20548
     20546     20544     20547     20549     20546     20544     20547     20550
     20547     20550     20553     20554     20547     20550     20553     20555
     20547     20550     20553     20556     20548     20547     20550     20551
     20548     20547     20550     20552     20548     20547     20550     20553
     20549     20547     20550     20551     20549     20547     20550     20552
     20549     20547     20550     20553     20550     20553     20556     20557
     20550     20553     20556     20558     20550     20553     20556     20559
     20551     20550     20553     20554     20551     20550     20553     20555
     20551     20550     20553     20556     20552     20550     20553     20554
     20552     20550     20553     20555     20552     20550     20553     20556
     20553     20556     20559     20560     20553     20556     20559     20561
     20553     20556     20559     20562     20554     20553     20556     20557
     20554     20553     20556     20558     20554     20553     20556     20559
     20555     20553     20556     20557     20555     20553     20556     20558
     20555     20553     20556     20559     20556     20559     20562     20563
     20556     20559     20562     20564     20556     20559     20562     20565
     20557     20556     20559     20560     20557     20556     20559     20561
     20557     20556     20559     20562     20558     20556     20559     20560
     20558     20556     20559     20561     20558     20556     20559     20562
     20559     20562     20565     20566     20559     20562     20565     20567
     20559     20562     20565     20568     20560     20559     20562     20563
     20560     20559     20562     20564     20560     20559     20562     20565
     20561     20559     20562     20563     20561     20559     20562     20564
     20561     20559     20562     20565     20562     20565     20568     20569
     20562     20565     20568     20570     20562     20565     20568     20571
     20563     20562     20565     20566     20563     20562     20565     20567
     20563     20562     20565     20568     20564     20562     20565     20566
     20564     20562     20565     20567     20564     20562     20565     20568
     20565     20568     20571     20572     20565     20568     20571     20573
     20565     20568     20571     20574     20566     20565     20568     20569
     20566     20565     20568     20570     20566     20565     20568     20571
     20567     20565     20568     20569     20567     20565     20568     20570
     20567     20565     20568     20571     20568     20571     20574     20575
     20568     20571     20574     20576     20568     20571     20574     20577
     20569     20568     20571     20572     20569     20568     20571     20573
     20569     20568     20571     20574     20570     20568     20571     20572
     20570     20568     20571     20573     20570     20568     20571     20574
     20571     20574     20577     20578     20571     20574     20577     20579
     20571     20574     20577     20580     20572     20571     20574     20575
     20572     20571     20574     20576     20572     20571     20574     20577
     20573     20571     20574     20575     20573     20571     20574     20576
     20573     20571     20574     20577     20574     20577     20580     20581
     20574     20577     20580     20582     20574     20577     20580     20583
     20575     20574     20577     20578     20575     20574     20577     20579
     20575     20574     20577     20580     20576     20574     20577     20578
     20576     20574     20577     20579     20576     20574     20577     20580
     20577     20580     20583     20584     20577     20580     20583     20585
     20577     20580     20583     20586     20578     20577     20580     20581
     20578     20577     20580     20582     20578     20577     20580     20583
     20579     20577     20580     20581     20579     20577     20580     20582
     20579     20577     20580     20583     20580     20583     20586     20587
     20580     20583     20586     20588     20580     20583     20586     20589
     20581     20580     20583     20584     20581     20580     20583     20585
     20581     20580     20583     20586     20582     20580     20583     20584
     20582     20580     20583     20585     20582     20580     20583     20586
     20583     20586     20589     20590     20583     20586     20589     20591
     20583     20586     20589     20592     20584     20583     20586     20587
     20584     20583     20586     20588     20584     20583     20586     20589
     20585     20583     20586     20587     20585     20583     20586     20588
     20585     20583     20586     20589     20587     20586     20589     20590
     20587     20586     20589     20591     20587     20586     20589     20592
     20588     20586     20589     20590     20588     20586     20589     20591
     20588     20586     20589     20592      1597      1601      1603      1604
      1597      1601      1603      1605      1597      1601      1606      1607
      1597      1601      1606      1608      1597      1601      1606      1612
      1598      1597      1601      1602      1598      1597      1601      1603
      1598      1597      1601      1606      1599      1597      1601      1602
      1599      1597      1601      1603      1599      1597      1601      1606
      1600      1597      1601      1602      1600      1597      1601      1603
      1600      1597      1601      1606      1601      1606      1612      1609
      1602      1601      1603      1604      1602      1601      1603      1605
      1602      1601      1606      1607      1602      1601      1606      1608
      1602      1601      1606      1612      1603      1601      1606      1607
      1603      1601      1606      1608      1603      1601      1606      1612
      1604      1603      1601      1606      1605      1603      1601      1606
      1606      1612      1609      1610      1606      1612      1609      1611
      1606      1612      1609      1613      1607      1606      1612      1609
      1608      1606      1612      1609      1609      1613      1614      1615
      1609      1613      1614      1616      1609      1613      1614      1617
      1610      1609      1613      1614      1611      1609      1613      1614
      1612      1609      1613      1614      1613      1614      1617      1618
      1613      1614      1617      1619      1613      1614      1617      1625
      1614      1617      1619      1620      1614      1617      1625      1626
      1614      1617      1625      1627      1614      1617      1625      1628
      1615      1614      1617      1618      1615      1614      1617      1619
      1615      1614      1617      1625      1616      1614      1617      1618
      1616      1614      1617      1619      1616      1614      1617      1625
      1617      1619      1620      1621      1617      1619      1620      1622
      1617      1625      1628      1629      1618      1617      1619      1620
      1618      1617      1625      1626      1618      1617      1625      1627
      1618      1617      1625      1628      1619      1617      1625      1626
      1619      1617      1625      1627      1619      1617      1625      1628
      1619      1620      1622      1623      1619      1620      1622      1624
      1619      1620      1622      1634      1620      1619      1617      1625
      1620      1622      1634      1635      1620      1622      1634      1636
      1620      1622      1634      1637      1621      1620      1622      1623
      1621      1620      1622      1624      1621      1620      1622      1634
      1622      1634      1637      1638      1622      1634      1637      1639
      1622      1634      1637      1640      1623      1622      1634      1635
      1623      1622      1634      1636      1623      1622      1634      1637
      1624      1622      1634      1635      1624      1622      1634      1636
      1624      1622      1634      1637      1625      1628      1629      1630
      1625      1628      1629      1631      1626      1625      1628      1629
      1627      1625      1628      1629      1628      1629      1631      1632
      1628      1629      1631      1633      1628      1629      1631      1681
      1629      1631      1681      1682      1629      1631      1681      1683
      1629      1631      1681      1684      1630      1629      1631      1632
      1630      1629      1631      1633      1630      1629      1631      1681
      1631      1681      1684      1685      1631      1681      1684      1686
      1631      1681      1684      1687      1632      1631      1681      1682
      1632      1631      1681      1683      1632      1631      1681      1684
      1633      1631      1681      1682      1633      1631      1681      1683
      1633      1631      1681      1684      1634      1637      1640      1641
      1634      1637      1640      1642      1635      1634      1637      1638
      1635      1634      1637      1639      1635      1634      1637      1640
      1636      1634      1637      1638      1636      1634      1637      1639
      1636      1634      1637      1640      1637      1640      1642      1643
      1637      1640      1642      1644      1638      1637      1640      1641
      1638      1637      1640      1642      1639      1637      1640      1641
      1639      1637      1640      1642      1640      1642      1644      1645
      1640      1642      1644      1646      1640      1642      1644      1647
      1641      1640      1642      1643      1641      1640      1642      1644
      1642      1644      1647      1648      1642      1644      1647      1649
      1643      1642      1644      1645      1643      1642      1644      1646
      1643      1642      1644      1647      1644      1647      1649      1650
      1644      1647      1649      1651      1645      1644      1647      1648
      1645      1644      1647      1649      1646      1644      1647      1648
      1646      1644      1647      1649      1647      1649      1651      1652
      1647      1649      1651      1653      1647      1649      1651      1654
      1648      1647      1649      1650      1648      1647      1649      1651
      1649      1651      1654      1655      1649      1651      1654      1656
      1650      1649      1651      1652      1650      1649      1651      1653
      1650      1649      1651      1654      1651      1654      1656      1657
      1651      1654      1656      1658      1652      1651      1654      1655
      1652      1651      1654      1656      1653      1651      1654      1655
      1653      1651      1654      1656      1654      1656      1658      1659
      1654      1656      1658      1660      1654      1656      1658      1661
      1655      1654      1656      1657      1655      1654      1656      1658
      1656      1658      1661      1662      1656      1658      1661      1663
      1657      1656      1658      1659      1657      1656      1658      1660
      1657      1656      1658      1661      1658      1661      1663      1664
      1658      1661      1663      1665      1659      1658      1661      1662
      1659      1658      1661      1663      1660      1658      1661      1662
      1660      1658      1661      1663      1661      1663      1665      1666
      1661      1663      1665      1667      1661      1663      1665      1668
      1662      1661      1663      1664      1662      1661      1663      1665
      1663      1665      1668      1669      1663      1665      1668      1670
      1663      1665      1668      1671      1664      1663      1665      1666
      1664      1663      1665      1667      1664      1663      1665      1668
      1665      1668      1671      1672      1665      1668      1671      1673
      1665      1668      1671      1674      1666      1665      1668      1669
      1666      1665      1668      1670      1666      1665      1668      1671
      1667      1665      1668      1669      1667      1665      1668      1670
      1667      1665      1668      1671      1668      1671      1674      1675
      1668      1671      1674      1676      1668      1671      1674      1677
      1669      1668      1671      1672      1669      1668      1671      1673
      1669      1668      1671      1674      1670      1668      1671      1672
      1670      1668      1671      1673      1670      1668      1671      1674
      1671      1674      1677      1678      1671      1674      1677      1679
      1671      1674      1677      1680      1672      1671      1674      1675
      1672      1671      1674      1676      1672      1671      1674      1677
      1673      1671      1674      1675      1673      1671      1674      1676
      1673      1671      1674      1677      1675      1674      1677      1678
      1675      1674      1677      1679      1675      1674      1677      1680
      1676      1674      1677      1678      1676      1674      1677      1679
      1676      1674      1677      1680      1681      1684      1687      1688
      1681      1684      1687      1689      1681      1684      1687      1690
      1682      1681      1684      1685      1682      1681      1684      1686
      1682      1681      1684      1687      1683      1681      1684      1685
      1683      1681      1684      1686      1683      1681      1684      1687
      1684      1687      1690      1691      1684      1687      1690      1692
      1684      1687      1690      1693      1685      1684      1687      1688
      1685      1684      1687      1689      1685      1684      1687      1690
      1686      1684      1687      1688      1686      1684      1687      1689
      1686      1684      1687      1690      1687      1690      1693      1694
      1687      1690      1693      1695      1687      1690      1693      1696
      1688      1687      1690      1691      1688      1687      1690      1692
      1688      1687      1690      1693      1689      1687      1690      1691
      1689      1687      1690      1692      1689      1687      1690      1693
      1690      1693      1696      1697      1690      1693      1696      1698
      1690      1693      1696      1699      1691      1690      1693      1694
      1691      1690      1693      1695      1691      1690      1693      1696
      1692      1690      1693      1694      1692      1690      1693      1695
      1692      1690      1693      1696      1693      1696      1699      1700
      1693      1696      1699      1701      1693      1696      1699      1702
      1694      1693      1696      1697      1694      1693      1696      1698
      1694      1693      1696      1699      1695      1693      1696      1697
      1695      1693      1696      1698      1695      1693      1696      1699
      1696      1699      1702      1703      1696      1699      1702      1704
      1696      1699      1702      1705      1697      1696      1699      1700
      1697      1696      1699      1701      1697      1696      1699      1702
      1698      1696      1699      1700      1698      1696      1699      1701
      1698      1696      1699      1702      1699      1702      1705      1706
      1699      1702      1705      1707      1699      1702      1705      1708
      1700      1699      1702      1703      1700      1699      1702      1704
      1700      1699      1702      1705      1701      1699      1702      1703
      1701      1699      1702      1704      1701      1699      1702      1705
      1702      1705      1708      1709      1702      1705      1708      1710
      1702      1705      1708      1711      1703      1702      1705      1706
      1703      1702      1705      1707      1703      1702      1705      1708
      1704      1702      1705      1706      1704      1702      1705      1707
      1704      1702      1705      1708      1705      1708      1711      1712
      1705      1708      1711      1713      1705      1708      1711      1714
      1706      1705      1708      1709      1706      1705      1708      1710
      1706      1705      1708      1711      1707      1705      1708      1709
      1707      1705      1708      1710      1707      1705      1708      1711
      1708      1711      1714      1715      1708      1711      1714      1716
      1708      1711      1714      1717      1709      1708      1711      1712
      1709      1708      1711      1713      1709      1708      1711      1714
      1710      1708      1711      1712      1710      1708      1711      1713
      1710      1708      1711      1714      1711      1714      1717      1718
      1711      1714      1717      1719      1711      1714      1717      1720
      1712      1711      1714      1715      1712      1711      1714      1716
      1712      1711      1714      1717      1713      1711      1714      1715
      1713      1711      1714      1716      1713      1711      1714      1717
      1714      1717      1720      1721      1714      1717      1720      1722
      1714      1717      1720      1723      1715      1714      1717      1718
      1715      1714      1717      1719      1715      1714      1717      1720
      1716      1714      1717      1718      1716      1714      1717      1719
      1716      1714      1717      1720      1717      1720      1723      1724
      1717      1720      1723      1725      1717      1720      1723      1726
      1718      1717      1720      1721      1718      1717      1720      1722
      1718      1717      1720      1723      1719      1717      1720      1721
      1719      1717      1720      1722      1719      1717      1720      1723
      1720      1723      1726      1727      1720      1723      1726      1728
      1720      1723      1726      1729      1721      1720      1723      1724
      1721      1720      1723      1725      1721      1720      1723      1726
      1722      1720      1723      1724      1722      1720      1723      1725
      1722      1720      1723      1726      1724      1723      1726      1727
      1724      1723      1726      1728      1724      1723      1726      1729
      1725      1723      1726      1727      1725      1723      1726      1728
      1725      1723      1726      1729      7853      7857      7860      7861
      7853      7857      7860      7862      7853      7857      7860      7866
      7854      7853      7857      7858      7854      7853      7857      7859
      7854      7853      7857      7860      7855      7853      7857      7858
      7855      7853      7857      7859      7855      7853      7857      7860
      7856      7853      7857      7858      7856      7853      7857      7859
      7856      7853      7857      7860      7857      7860      7866      7863
      7858      7857      7860      7861      7858      7857      7860      7862
      7858      7857      7860      7866      7859      7857      7860      7861
      7859      7857      7860      7862      7859      7857      7860      7866
      7860      7866      7863      7864      7860      7866      7863      7865
      7860      7866      7863      7867      7861      7860      7866      7863
      7862      7860      7866      7863      7863      7867      7868      7869
      7863      7867      7868      7870      7863      7867      7868      7871
      7864      7863      7867      7868      7865      7863      7867      7868
      7866      7863      7867      7868      7867      7868      7871      7872
      7867      7868      7871      7873      7867      7868      7871      7879
      7868      7871      7873      7874      7868      7871      7879      7880
      7868      7871      7879      7881      7868      7871      7879      7882
      7869      7868      7871      7872      7869      7868      7871      7873
      7869      7868      7871      7879      7870      7868      7871      7872
      7870      7868      7871      7873      7870      7868      7871      7879
      7871      7873      7874      7875      7871      7873      7874      7876
      7871      7879      7882      7883      7872      7871      7873      7874
      7872      7871      7879      7880      7872      7871      7879      7881
      7872      7871      7879      7882      7873      7871      7879      7880
      7873      7871      7879      7881      7873      7871      7879      7882
      7873      7874      7876      7877      7873      7874      7876      7878
      7873      7874      7876      7888      7874      7873      7871      7879
      7874      7876      7888      7889      7874      7876      7888      7890
      7874      7876      7888      7891      7875      7874      7876      7877
      7875      7874      7876      7878      7875      7874      7876      7888
      7876      7888      7891      7892      7876      7888      7891      7893
      7876      7888      7891      7894      7877      7876      7888      7889
      7877      7876      7888      7890      7877      7876      7888      7891
      7878      7876      7888      7889      7878      7876      7888      7890
      7878      7876      7888      7891      7879      7882      7883      7884
      7879      7882      7883      7885      7880      7879      7882      7883
      7881      7879      7882      7883      7882      7883      7885      7886
      7882      7883      7885      7887      7882      7883      7885      7935
      7883      7885      7935      7936      7883      7885      7935      7937
      7883      7885      7935      7938      7884      7883      7885      7886
      7884      7883      7885      7887      7884      7883      7885      7935
      7885      7935      7938      7939      7885      7935      7938      7940
      7885      7935      7938      7941      7886      7885      7935      7936
      7886      7885      7935      7937      7886      7885      7935      7938
      7887      7885      7935      7936      7887      7885      7935      7937
      7887      7885      7935      7938      7888      7891      7894      7895
      7888      7891      7894      7896      7888      7891      7894      7897
      7889      7888      7891      7892      7889      7888      7891      7893
      7889      7888      7891      7894      7890      7888      7891      7892
      7890      7888      7891      7893      7890      7888      7891      7894
      7891      7894      7897      7898      7891      7894      7897      7899
      7891      7894      7897      7900      7892      7891      7894      7895
      7892      7891      7894      7896      7892      7891      7894      7897
      7893      7891      7894      7895      7893      7891      7894      7896
      7893      7891      7894      7897      7894      7897      7900      7901
      7894      7897      7900      7902      7894      7897      7900      7903
      7895      7894      7897      7898      7895      7894      7897      7899
      7895      7894      7897      7900      7896      7894      7897      7898
      7896      7894      7897      7899      7896      7894      7897      7900
      7897      7900      7903      7904      7897      7900      7903      7905
      7897      7900      7903      7906      7898      7897      7900      7901
      7898      7897      7900      7902      7898      7897      7900      7903
      7899      7897      7900      7901      7899      7897      7900      7902
      7899      7897      7900      7903      7900      7903      7906      7907
      7900      7903      7906      7908      7901      7900      7903      7904
      7901      7900      7903      7905      7901      7900      7903      7906
      7902      7900      7903      7904      7902      7900      7903      7905
      7902      7900      7903      7906      7903      7906      7908      7909
      7903      7906      7908      7910      7904      7903      7906      7907
      7904      7903      7906      7908      7905      7903      7906      7907
      7905      7903      7906      7908      7906      7908      7910      7911
      7906      7908      7910      7912      7906      7908      7910      7913
      7907      7906      7908      7909      7907      7906      7908      7910
      7908      7910      7913      7914      7908      7910      7913      7915
      7908      7910      7913      7916      7909      7908      7910      7911
      7909      7908      7910      7912      7909      7908      7910      7913
      7910      7913      7916      7917      7910      7913      7916      7918
      7910      7913      7916      7919      7911      7910      7913      7914
      7911      7910      7913      7915      7911      7910      7913      7916
      7912      7910      7913      7914      7912      7910      7913      7915
      7912      7910      7913      7916      7913      7916      7919      7920
      7913      7916      7919      7921      7913      7916      7919      7922
      7914      7913      7916      7917      7914      7913      7916      7918
      7914      7913      7916      7919      7915      7913      7916      7917
      7915      7913      7916      7918      7915      7913      7916      7919
      7916      7919      7922      7923      7916      7919      7922      7924
      7916      7919      7922      7925      7917      7916      7919      7920
      7917      7916      7919      7921      7917      7916      7919      7922
      7918      7916      7919      7920      7918      7916      7919      7921
      7918      7916      7919      7922      7919      7922      7925      7926
      7919      7922      7925      7927      7919      7922      7925      7928
      7920      7919      7922      7923      7920      7919      7922      7924
      7920      7919      7922      7925      7921      7919      7922      7923
      7921      7919      7922      7924      7921      7919      7922      7925
      7922      7925      7928      7929      7922      7925      7928      7930
      7922      7925      7928      7931      7923      7922      7925      7926
      7923      7922      7925      7927      7923      7922      7925      7928
      7924      7922      7925      7926      7924      7922      7925      7927
      7924      7922      7925      7928      7925      7928      7931      7932
      7925      7928      7931      7933      7925      7928      7931      7934
      7926      7925      7928      7929      7926      7925      7928      7930
      7926      7925      7928      7931      7927      7925      7928      7929
      7927      7925      7928      7930      7927      7925      7928      7931
      7929      7928      7931      7932      7929      7928      7931      7933
      7929      7928      7931      7934      7930      7928      7931      7932
      7930      7928      7931      7933      7930      7928      7931      7934
      7935      7938      7941      7942      7935      7938      7941      7943
      7935      7938      7941      7944      7936      7935      7938      7939
      7936      7935      7938      7940      7936      7935      7938      7941
      7937      7935      7938      7939      7937      7935      7938      7940
      7937      7935      7938      7941      7938      7941      7944      7945
      7938      7941      7944      7946      7938      7941      7944      7947
      7939      7938      7941      7942      7939      7938      7941      7943
      7939      7938      7941      7944      7940      7938      7941      7942
      7940      7938      7941      7943      7940      7938      7941      7944
      7941      7944      7947      7948      7941      7944      7947      7949
      7941      7944      7947      7950      7942      7941      7944      7945
      7942      7941      7944      7946      7942      7941      7944      7947
      7943      7941      7944      7945      7943      7941      7944      7946
      7943      7941      7944      7947      7944      7947      7950      7951
      7944      7947      7950      7952      7944      7947      7950      7953
      7945      7944      7947      7948      7945      7944      7947      7949
      7945      7944      7947      7950      7946      7944      7947      7948
      7946      7944      7947      7949      7946      7944      7947      7950
      7947      7950      7953      7954      7947      7950      7953      7955
      7947      7950      7953      7956      7948      7947      7950      7951
      7948      7947      7950      7952      7948      7947      7950      7953
      7949      7947      7950      7951      7949      7947      7950      7952
      7949      7947      7950      7953      7950      7953      7956      7957
      7950      7953      7956      7958      7950      7953      7956      7959
      7951      7950      7953      7954      7951      7950      7953      7955
      7951      7950      7953      7956      7952      7950      7953      7954
      7952      7950      7953      7955      7952      7950      7953      7956
      7953      7956      7959      7960      7953      7956      7959      7961
      7953      7956      7959      7962      7954      7953      7956      7957
      7954      7953      7956      7958      7954      7953      7956      7959
      7955      7953      7956      7957      7955      7953      7956      7958
      7955      7953      7956      7959      7956      7959      7962      7963
      7956      7959      7962      7964      7956      7959      7962      7965
      7957      7956      7959      7960      7957      7956      7959      7961
      7957      7956      7959      7962      7958      7956      7959      7960
      7958      7956      7959      7961      7958      7956      7959      7962
      7959      7962      7965      7966      7959      7962      7965      7967
      7959      7962      7965      7968      7960      7959      7962      7963
      7960      7959      7962      7964      7960      7959      7962      7965
      7961      7959      7962      7963      7961      7959      7962      7964
      7961      7959      7962      7965      7962      7965      7968      7969
      7962      7965      7968      7970      7962      7965      7968      7971
      7963      7962      7965      7966      7963      7962      7965      7967
      7963      7962      7965      7968      7964      7962      7965      7966
      7964      7962      7965      7967      7964      7962      7965      7968
      7965      7968      7971      7972      7965      7968      7971      7973
      7965      7968      7971      7974      7966      7965      7968      7969
      7966      7965      7968      7970      7966      7965      7968      7971
      7967      7965      7968      7969      7967      7965      7968      7970
      7967      7965      7968      7971      7968      7971      7974      7975
      7968      7971      7974      7976      7968      7971      7974      7977
      7969      7968      7971      7972      7969      7968      7971      7973
      7969      7968      7971      7974      7970      7968      7971      7972
      7970      7968      7971      7973      7970      7968      7971      7974
      7971      7974      7977      7978      7971      7974      7977      7979
      7971      7974      7977      7980      7972      7971      7974      7975
      7972      7971      7974      7976      7972      7971      7974      7977
      7973      7971      7974      7975      7973      7971      7974      7976
      7973      7971      7974      7977      7974      7977      7980      7981
      7974      7977      7980      7982      7974      7977      7980      7983
      7975      7974      7977      7978      7975      7974      7977      7979
      7975      7974      7977      7980      7976      7974      7977      7978
      7976      7974      7977      7979      7976      7974      7977      7980
      7978      7977      7980      7981      7978      7977      7980      7982
      7978      7977      7980      7983      7979      7977      7980      7981
      7979      7977      7980      7982      7979      7977      7980      7983
     13332     13345     13348     13349     13332     13345     13348     13350
     13332     13345     13348     13355     13333     13332     13337     13338
     13333     13332     13337     13339     13333     13332     13337     13340
     13333     13332     13341     13342     13333     13332     13341     13343
     13333     13332     13341     13344     13333     13332     13345     13346
     13333     13332     13345     13347     13333     13332     13345     13348
     13334     13333     13332     13337     13334     13333     13332     13341
     13334     13333     13332     13345     13335     13333     13332     13337
     13335     13333     13332     13341     13335     13333     13332     13345
     13336     13333     13332     13337     13336     13333     13332     13341
     13336     13333     13332     13345     13337     13332     13341     13342
     13337     13332     13341     13343     13337     13332     13341     13344
     13337     13332     13345     13346     13337     13332     13345     13347
     13337     13332     13345     13348     13338     13337     13332     13341
     13338     13337     13332     13345     13339     13337     13332     13341
     13339     13337     13332     13345     13340     13337     13332     13341
     13340     13337     13332     13345     13341     13332     13345     13346
     13341     13332     13345     13347     13341     13332     13345     13348
     13342     13341     13332     13345     13343     13341     13332     13345
     13344     13341     13332     13345     13345     13348     13355     13351
     13346     13345     13348     13349     13346     13345     13348     13350
     13346     13345     13348     13355     13347     13345     13348     13349
     13347     13345     13348     13350     13347     13345     13348     13355
     13348     13355     13351     13352     13348     13355     13351     13353
     13348     13355     13351     13354     13349     13348     13355     13351
     13350     13348     13355     13351     13351     13354     13356     13357
     13351     13354     13356     13358     13351     13354     13356     13361
     13352     13351     13354     13356     13353     13351     13354     13356
     13354     13356     13361     13359     13354     13356     13361     13362
     13354     13356     13361     13363     13355     13351     13354     13356
     13356     13361     13359     13360     13356     13361     13359     13411
     13356     13361     13363     13364     13356     13361     13363     13365
     13356     13361     13363     13367     13357     13356     13361     13359
     13357     13356     13361     13362     13357     13356     13361     13363
     13358     13356     13361     13359     13358     13356     13361     13362
     13358     13356     13361     13363     13359     13361     13363     13364
     13359     13361     13363     13365     13359     13361     13363     13367
     13359     13411     13413     13414     13359     13411     13413     13415
     13359     13411     13413     13416     13360     13359     13361     13362
     13360     13359     13361     13363     13360     13359     13411     13412
     13360     13359     13411     13413     13361     13359     13411     13412
     13361     13359     13411     13413     13361     13363     13365     13366
     13361     13363     13367     13368     13361     13363     13367     13369
     13362     13361     13359     13411     13362     13361     13363     13364
     13362     13361     13363     13365     13362     13361     13363     13367
     13363     13361     13359     13411     13363     13367     13369     13370
     13363     13367     13369     13371     13364     13363     13365     13366
     13364     13363     13367     13368     13364     13363     13367     13369
     13365     13363     13367     13368     13365     13363     13367     13369
     13366     13365     13363     13367     13367     13369     13371     13372
     13367     13369     13371     13373     13367     13369     13371     13374
     13368     13367     13369     13370     13368     13367     13369     13371
     13369     13371     13374     13375     13369     13371     13374     13376
     13369     13371     13374     13377     13370     13369     13371     13372
     13370     13369     13371     13373     13370     13369     13371     13374
     13371     13374     13377     13378     13371     13374     13377     13379
     13371     13374     13377     13380     13372     13371     13374     13375
     13372     13371     13374     13376     13372     13371     13374     13377
     13373     13371     13374     13375     13373     13371     13374     13376
     13373     13371     13374     13377     13374     13377     13380     13381
     13374     13377     13380     13382     13374     13377     13380     13383
     13375     13374     13377     13378     13375     13374     13377     13379
     13375     13374     13377     13380     13376     13374     13377     13378
     13376     13374     13377     13379     13376     13374     13377     13380
     13377     13380     13383     13384     13377     13380     13383     13385
     13377     13380     13383     13386     13378     13377     13380     13381
     13378     13377     13380     13382     13378     13377     13380     13383
     13379     13377     13380     13381     13379     13377     13380     13382
     13379     13377     13380     13383     13380     13383     13386     13387
     13380     13383     13386     13388     13380     13383     13386     13389
     13381     13380     13383     13384     13381     13380     13383     13385
     13381     13380     13383     13386     13382     13380     13383     13384
     13382     13380     13383     13385     13382     13380     13383     13386
     13383     13386     13389     13390     13383     13386     13389     13391
     13383     13386     13389     13392     13384     13383     13386     13387
     13384     13383     13386     13388     13384     13383     13386     13389
     13385     13383     13386     13387     13385     13383     13386     13388
     13385     13383     13386     13389     13386     13389     13392     13393
     13386     13389     13392     13394     13386     13389     13392     13395
     13387     13386     13389     13390     13387     13386     13389     13391
     13387     13386     13389     13392     13388     13386     13389     13390
     13388     13386     13389     13391     13388     13386     13389     13392
     13389     13392     13395     13396     13389     13392     13395     13397
     13389     13392     13395     13398     13390     13389     13392     13393
     13390     13389     13392     13394     13390     13389     13392     13395
     13391     13389     13392     13393     13391     13389     13392     13394
     13391     13389     13392     13395     13392     13395     13398     13399
     13392     13395     13398     13400     13392     13395     13398     13401
     13393     13392     13395     13396     13393     13392     13395     13397
     13393     13392     13395     13398     13394     13392     13395     13396
     13394     13392     13395     13397     13394     13392     13395     13398
     13395     13398     13401     13402     13395     13398     13401     13403
     13395     13398     13401     13404     13396     13395     13398     13399
     13396     13395     13398     13400     13396     13395     13398     13401
     13397     13395     13398     13399     13397     13395     13398     13400
     13397     13395     13398     13401     13398     13401     13404     13405
     13398     13401     13404     13406     13398     13401     13404     13407
     13399     13398     13401     13402     13399     13398     13401     13403
     13399     13398     13401     13404     13400     13398     13401     13402
     13400     13398     13401     13403     13400     13398     13401     13404
     13401     13404     13407     13408     13401     13404     13407     13409
     13401     13404     13407     13410     13402     13401     13404     13405
     13402     13401     13404     13406     13402     13401     13404     13407
     13403     13401     13404     13405     13403     13401     13404     13406
     13403     13401     13404     13407     13405     13404     13407     13408
     13405     13404     13407     13409     13405     13404     13407     13410
     13406     13404     13407     13408     13406     13404     13407     13409
     13406     13404     13407     13410     13411     13413     13416     13417
     13411     13413     13416     13418     13411     13413     13416     13419
     13412     13411     13413     13414     13412     13411     13413     13415
     13412     13411     13413     13416     13413     13416     13419     13420
     13413     13416     13419     13421     13413     13416     13419     13422
     13414     13413     13416     13417     13414     13413     13416     13418
     13414     13413     13416     13419     13415     13413     13416     13417
     13415     13413     13416     13418     13415     13413     13416     13419
     13416     13419     13422     13423     13416     13419     13422     13424
     13416     13419     13422     13425     13417     13416     13419     13420
     13417     13416     13419     13421     13417     13416     13419     13422
     13418     13416     13419     13420     13418     13416     13419     13421
     13418     13416     13419     13422     13419     13422     13425     13426
     13419     13422     13425     13427     13419     13422     13425     13428
     13420     13419     13422     13423     13420     13419     13422     13424
     13420     13419     13422     13425     13421     13419     13422     13423
     13421     13419     13422     13424     13421     13419     13422     13425
     13422     13425     13428     13429     13422     13425     13428     13430
     13422     13425     13428     13431     13423     13422     13425     13426
     13423     13422     13425     13427     13423     13422     13425     13428
     13424     13422     13425     13426     13424     13422     13425     13427
     13424     13422     13425     13428     13425     13428     13431     13432
     13425     13428     13431     13433     13425     13428     13431     13434
     13426     13425     13428     13429     13426     13425     13428     13430
     13426     13425     13428     13431     13427     13425     13428     13429
     13427     13425     13428     13430     13427     13425     13428     13431
     13428     13431     13434     13435     13428     13431     13434     13436
     13429     13428     13431     13432     13429     13428     13431     13433
     13429     13428     13431     13434     13430     13428     13431     13432
     13430     13428     13431     13433     13430     13428     13431     13434
     13431     13434     13436     13437     13431     13434     13436     13438
     13432     13431     13434     13435     13432     13431     13434     13436
     13433     13431     13434     13435     13433     13431     13434     13436
     13434     13436     13438     13439     13434     13436     13438     13440
     13434     13436     13438     13441     13435     13434     13436     13437
     13435     13434     13436     13438     13436     13438     13441     13442
     13436     13438     13441     13443     13436     13438     13441     13444
     13437     13436     13438     13439     13437     13436     13438     13440
     13437     13436     13438     13441     13438     13441     13444     13445
     13438     13441     13444     13446     13438     13441     13444     13447
     13439     13438     13441     13442     13439     13438     13441     13443
     13439     13438     13441     13444     13440     13438     13441     13442
     13440     13438     13441     13443     13440     13438     13441     13444
     13441     13444     13447     13448     13441     13444     13447     13449
     13441     13444     13447     13450     13442     13441     13444     13445
     13442     13441     13444     13446     13442     13441     13444     13447
     13443     13441     13444     13445     13443     13441     13444     13446
     13443     13441     13444     13447     13444     13447     13450     13451
     13444     13447     13450     13452     13444     13447     13450     13453
     13445     13444     13447     13448     13445     13444     13447     13449
     13445     13444     13447     13450     13446     13444     13447     13448
     13446     13444     13447     13449     13446     13444     13447     13450
     13447     13450     13453     13454     13447     13450     13453     13455
     13447     13450     13453     13456     13448     13447     13450     13451
     13448     13447     13450     13452     13448     13447     13450     13453
     13449     13447     13450     13451     13449     13447     13450     13452
     13449     13447     13450     13453     13450     13453     13456     13457
     13450     13453     13456     13458     13450     13453     13456     13459
     13451     13450     13453     13454     13451     13450     13453     13455
     13451     13450     13453     13456     13452     13450     13453     13454
     13452     13450     13453     13455     13452     13450     13453     13456
     13453     13456     13459     13460     13453     13456     13459     13461
     13453     13456     13459     13462     13454     13453     13456     13457
     13454     13453     13456     13458     13454     13453     13456     13459
     13455     13453     13456     13457     13455     13453     13456     13458
     13455     13453     13456     13459     13457     13456     13459     13460
     13457     13456     13459     13461     13457     13456     13459     13462
     13458     13456     13459     13460     13458     13456     13459     13461
     13458     13456     13459     13462     13463     13476     13479     13480
     13463     13476     13479     13481     13463     13476     13479     13486
     13464     13463     13468     13469     13464     13463     13468     13470
     13464     13463     13468     13471     13464     13463     13472     13473
     13464     13463     13472     13474     13464     13463     13472     13475
     13464     13463     13476     13477     13464     13463     13476     13478
     13464     13463     13476     13479     13465     13464     13463     13468
     13465     13464     13463     13472     13465     13464     13463     13476
     13466     13464     13463     13468     13466     13464     13463     13472
     13466     13464     13463     13476     13467     13464     13463     13468
     13467     13464     13463     13472     13467     13464     13463     13476
     13468     13463     13472     13473     13468     13463     13472     13474
     13468     13463     13472     13475     13468     13463     13476     13477
     13468     13463     13476     13478     13468     13463     13476     13479
     13469     13468     13463     13472     13469     13468     13463     13476
     13470     13468     13463     13472     13470     13468     13463     13476
     13471     13468     13463     13472     13471     13468     13463     13476
     13472     13463     13476     13477     13472     13463     13476     13478
     13472     13463     13476     13479     13473     13472     13463     13476
     13474     13472     13463     13476     13475     13472     13463     13476
     13476     13479     13486     13482     13477     13476     13479     13480
     13477     13476     13479     13481     13477     13476     13479     13486
     13478     13476     13479     13480     13478     13476     13479     13481
     13478     13476     13479     13486     13479     13486     13482     13483
     13479     13486     13482     13484     13479     13486     13482     13485
     13480     13479     13486     13482     13481     13479     13486     13482
     13482     13485     13487     13488     13482     13485     13487     13489
     13482     13485     13487     13492     13483     13482     13485     13487
     13484     13482     13485     13487     13485     13487     13492     13490
     13485     13487     13492     13493     13485     13487     13492     13494
     13486     13482     13485     13487     13487     13492     13490     13491
     13487     13492     13490     13542     13487     13492     13494     13495
     13487     13492     13494     13496     13487     13492     13494     13498
     13488     13487     13492     13490     13488     13487     13492     13493
     13488     13487     13492     13494     13489     13487     13492     13490
     13489     13487     13492     13493     13489     13487     13492     13494
     13490     13492     13494     13495     13490     13492     13494     13496
     13490     13492     13494     13498     13490     13542     13544     13545
     13490     13542     13544     13546     13490     13542     13544     13547
     13491     13490     13492     13493     13491     13490     13492     13494
     13491     13490     13542     13543     13491     13490     13542     13544
     13492     13490     13542     13543     13492     13490     13542     13544
     13492     13494     13496     13497     13492     13494     13498     13499
     13492     13494     13498     13500     13493     13492     13490     13542
     13493     13492     13494     13495     13493     13492     13494     13496
     13493     13492     13494     13498     13494     13492     13490     13542
     13494     13498     13500     13501     13494     13498     13500     13502
     13495     13494     13496     13497     13495     13494     13498     13499
     13495     13494     13498     13500     13496     13494     13498     13499
     13496     13494     13498     13500     13497     13496     13494     13498
     13498     13500     13502     13503     13498     13500     13502     13504
     13498     13500     13502     13505     13499     13498     13500     13501
     13499     13498     13500     13502     13500     13502     13505     13506
     13500     13502     13505     13507     13500     13502     13505     13508
     13501     13500     13502     13503     13501     13500     13502     13504
     13501     13500     13502     13505     13502     13505     13508     13509
     13502     13505     13508     13510     13502     13505     13508     13511
     13503     13502     13505     13506     13503     13502     13505     13507
     13503     13502     13505     13508     13504     13502     13505     13506
     13504     13502     13505     13507     13504     13502     13505     13508
     13505     13508     13511     13512     13505     13508     13511     13513
     13505     13508     13511     13514     13506     13505     13508     13509
     13506     13505     13508     13510     13506     13505     13508     13511
     13507     13505     13508     13509     13507     13505     13508     13510
     13507     13505     13508     13511     13508     13511     13514     13515
     13508     13511     13514     13516     13508     13511     13514     13517
     13509     13508     13511     13512     13509     13508     13511     13513
     13509     13508     13511     13514     13510     13508     13511     13512
     13510     13508     13511     13513     13510     13508     13511     13514
     13511     13514     13517     13518     13511     13514     13517     13519
     13511     13514     13517     13520     13512     13511     13514     13515
     13512     13511     13514     13516     13512     13511     13514     13517
     13513     13511     13514     13515     13513     13511     13514     13516
     13513     13511     13514     13517     13514     13517     13520     13521
     13514     13517     13520     13522     13514     13517     13520     13523
     13515     13514     13517     13518     13515     13514     13517     13519
     13515     13514     13517     13520     13516     13514     13517     13518
     13516     13514     13517     13519     13516     13514     13517     13520
     13517     13520     13523     13524     13517     13520     13523     13525
     13517     13520     13523     13526     13518     13517     13520     13521
     13518     13517     13520     13522     13518     13517     13520     13523
     13519     13517     13520     13521     13519     13517     13520     13522
     13519     13517     13520     13523     13520     13523     13526     13527
     13520     13523     13526     13528     13520     13523     13526     13529
     13521     13520     13523     13524     13521     13520     13523     13525
     13521     13520     13523     13526     13522     13520     13523     13524
     13522     13520     13523     13525     13522     13520     13523     13526
     13523     13526     13529     13530     13523     13526     13529     13531
     13523     13526     13529     13532     13524     13523     13526     13527
     13524     13523     13526     13528     13524     13523     13526     13529
     13525     13523     13526     13527     13525     13523     13526     13528
     13525     13523     13526     13529     13526     13529     13532     13533
     13526     13529     13532     13534     13526     13529     13532     13535
     13527     13526     13529     13530     13527     13526     13529     13531
     13527     13526     13529     13532     13528     13526     13529     13530
     13528     13526     13529     13531     13528     13526     13529     13532
     13529     13532     13535     13536     13529     13532     13535     13537
     13529     13532     13535     13538     13530     13529     13532     13533
     13530     13529     13532     13534     13530     13529     13532     13535
     13531     13529     13532     13533     13531     13529     13532     13534
     13531     13529     13532     13535     13532     13535     13538     13539
     13532     13535     13538     13540     13532     13535     13538     13541
     13533     13532     13535     13536     13533     13532     13535     13537
     13533     13532     13535     13538     13534     13532     13535     13536
     13534     13532     13535     13537     13534     13532     13535     13538
     13536     13535     13538     13539     13536     13535     13538     13540
     13536     13535     13538     13541     13537     13535     13538     13539
     13537     13535     13538     13540     13537     13535     13538     13541
     13542     13544     13547     13548     13542     13544     13547     13549
     13542     13544     13547     13550     13543     13542     13544     13545
     13543     13542     13544     13546     13543     13542     13544     13547
     13544     13547     13550     13551     13544     13547     13550     13552
     13544     13547     13550     13553     13545     13544     13547     13548
     13545     13544     13547     13549     13545     13544     13547     13550
     13546     13544     13547     13548     13546     13544     13547     13549
     13546     13544     13547     13550     13547     13550     13553     13554
     13547     13550     13553     13555     13547     13550     13553     13556
     13548     13547     13550     13551     13548     13547     13550     13552
     13548     13547     13550     13553     13549     13547     13550     13551
     13549     13547     13550     13552     13549     13547     13550     13553
     13550     13553     13556     13557     13550     13553     13556     13558
     13550     13553     13556     13559     13551     13550     13553     13554
     13551     13550     13553     13555     13551     13550     13553     13556
     13552     13550     13553     13554     13552     13550     13553     13555
     13552     13550     13553     13556     13553     13556     13559     13560
     13553     13556     13559     13561     13553     13556     13559     13562
     13554     13553     13556     13557     13554     13553     13556     13558
     13554     13553     13556     13559     13555     13553     13556     13557
     13555     13553     13556     13558     13555     13553     13556     13559
     13556     13559     13562     13563     13556     13559     13562     13564
     13556     13559     13562     13565     13557     13556     13559     13560
     13557     13556     13559     13561     13557     13556     13559     13562
     13558     13556     13559     13560     13558     13556     13559     13561
     13558     13556     13559     13562     13559     13562     13565     13566
     13559     13562     13565     13567     13560     13559     13562     13563
     13560     13559     13562     13564     13560     13559     13562     13565
     13561     13559     13562     13563     13561     13559     13562     13564
     13561     13559     13562     13565     13562     13565     13567     13568
     13562     13565     13567     13569     13563     13562     13565     13566
     13563     13562     13565     13567     13564     13562     13565     13566
     13564     13562     13565     13567     13565     13567     13569     13570
     13565     13567     13569     13571     13565     13567     13569     13572
     13566     13565     13567     13568     13566     13565     13567     13569
     13567     13569     13572     13573     13567     13569     13572     13574
     13567     13569     13572     13575     13568     13567     13569     13570
     13568     13567     13569     13571     13568     13567     13569     13572
     13569     13572     13575     13576     13569     13572     13575     13577
     13569     13572     13575     13578     13570     13569     13572     13573
     13570     13569     13572     13574     13570     13569     13572     13575
     13571     13569     13572     13573     13571     13569     13572     13574
     13571     13569     13572     13575     13572     13575     13578     13579
     13572     13575     13578     13580     13572     13575     13578     13581
     13573     13572     13575     13576     13573     13572     13575     13577
     13573     13572     13575     13578     13574     13572     13575     13576
     13574     13572     13575     13577     13574     13572     13575     13578
     13575     13578     13581     13582     13575     13578     13581     13583
     13575     13578     13581     13584     13576     13575     13578     13579
     13576     13575     13578     13580     13576     13575     13578     13581
     13577     13575     13578     13579     13577     13575     13578     13580
     13577     13575     13578     13581     13578     13581     13584     13585
     13578     13581     13584     13586     13578     13581     13584     13587
     13579     13578     13581     13582     13579     13578     13581     13583
     13579     13578     13581     13584     13580     13578     13581     13582
     13580     13578     13581     13583     13580     13578     13581     13584
     13581     13584     13587     13588     13581     13584     13587     13589
     13581     13584     13587     13590     13582     13581     13584     13585
     13582     13581     13584     13586     13582     13581     13584     13587
     13583     13581     13584     13585     13583     13581     13584     13586
     13583     13581     13584     13587     13584     13587     13590     13591
     13584     13587     13590     13592     13584     13587     13590     13593
     13585     13584     13587     13588     13585     13584     13587     13589
     13585     13584     13587     13590     13586     13584     13587     13588
     13586     13584     13587     13589     13586     13584     13587     13590
     13588     13587     13590     13591     13588     13587     13590     13592
     13588     13587     13590     13593     13589     13587     13590     13591
     13589     13587     13590     13592     13589     13587     13590     13593
      1730      1734      1736      1737      1730      1734      1736      1738
      1730      1734      1739      1740      1730      1734      1739      1741
      1730      1734      1739      1745      1731      1730      1734      1735
      1731      1730      1734      1736      1731      1730      1734      1739
      1732      1730      1734      1735      1732      1730      1734      1736
      1732      1730      1734      1739      1733      1730      1734      1735
      1733      1730      1734      1736      1733      1730      1734      1739
      1734      1739      1745      1742      1735      1734      1736      1737
      1735      1734      1736      1738      1735      1734      1739      1740
      1735      1734      1739      1741      1735      1734      1739      1745
      1736      1734      1739      1740      1736      1734      1739      1741
      1736      1734      1739      1745      1737      1736      1734      1739
      1738      1736      1734      1739      1739      1745      1742      1743
      1739      1745      1742      1744      1739      1745      1742      1746
      1740      1739      1745      1742      1741      1739      1745      1742
      1742      1746      1747      1748      1742      1746      1747      1749
      1742      1746      1747      1750      1743      1742      1746      1747
      1744      1742      1746      1747      1745      1742      1746      1747
      1746      1747      1750      1751      1746      1747      1750      1752
      1746      1747      1750      1758      1747      1750      1752      1753
      1747      1750      1758      1759      1747      1750      1758      1760
      1747      1750      1758      1761      1748      1747      1750      1751
      1748      1747      1750      1752      1748      1747      1750      1758
      1749      1747      1750      1751      1749      1747      1750      1752
      1749      1747      1750      1758      1750      1752      1753      1754
      1750      1752      1753      1755      1750      1758      1761      1762
      1751      1750      1752      1753      1751      1750      1758      1759
      1751      1750      1758      1760      1751      1750      1758      1761
      1752      1750      1758      1759      1752      1750      1758      1760
      1752      1750      1758      1761      1752      1753      1755      1756
      1752      1753      1755      1757      1752      1753      1755      1767
      1753      1752      1750      1758      1753      1755      1767      1768
      1753      1755      1767      1769      1753      1755      1767      1770
      1754      1753      1755      1756      1754      1753      1755      1757
      1754      1753      1755      1767      1755      1767      1770      1771
      1755      1767      1770      1772      1755      1767      1770      1773
      1756      1755      1767      1768      1756      1755      1767      1769
      1756      1755      1767      1770      1757      1755      1767      1768
      1757      1755      1767      1769      1757      1755      1767      1770
      1758      1761      1762      1763      1758      1761      1762      1764
      1759      1758      1761      1762      1760      1758      1761      1762
      1761      1762      1764      1765      1761      1762      1764      1766
      1761      1762      1764      1814      1762      1764      1814      1815
      1762      1764      1814      1816      1762      1764      1814      1817
      1763      1762      1764      1765      1763      1762      1764      1766
      1763      1762      1764      1814      1764      1814      1817      1818
      1764      1814      1817      1819      1764      1814      1817      1820
      1765      1764      1814      1815      1765      1764      1814      1816
      1765      1764      1814      1817      1766      1764      1814      1815
      1766      1764      1814      1816      1766      1764      1814      1817
      1767      1770      1773      1774      1767      1770      1773      1775
      1768      1767      1770      1771      1768      1767      1770      1772
      1768      1767      1770      1773      1769      1767      1770      1771
      1769      1767      1770      1772      1769      1767      1770      1773
      1770      1773      1775      1776      1770      1773      1775      1777
      1771      1770      1773      1774      1771      1770      1773      1775
      1772      1770      1773      1774      1772      1770      1773      1775
      1773      1775      1777      1778      1773      1775      1777      1779
      1773      1775      1777      1780      1774      1773      1775      1776
      1774      1773      1775      1777      1775      1777      1780      1781
      1775      1777      1780      1782      1776      1775      1777      1778
      1776      1775      1777      1779      1776      1775      1777      1780
      1777      1780      1782      1783      1777      1780      1782      1784
      1778      1777      1780      1781      1778      1777      1780      1782
      1779      1777      1780      1781      1779      1777      1780      1782
      1780      1782      1784      1785      1780      1782      1784      1786
      1780      1782      1784      1787      1781      1780      1782      1783
      1781      1780      1782      1784      1782      1784      1787      1788
      1782      1784      1787      1789      1783      1782      1784      1785
      1783      1782      1784      1786      1783      1782      1784      1787
      1784      1787      1789      1790      1784      1787      1789      1791
      1785      1784      1787      1788      1785      1784      1787      1789
      1786      1784      1787      1788      1786      1784      1787      1789
      1787      1789      1791      1792      1787      1789      1791      1793
      1787      1789      1791      1794      1788      1787      1789      1790
      1788      1787      1789      1791      1789      1791      1794      1795
      1789      1791      1794      1796      1790      1789      1791      1792
      1790      1789      1791      1793      1790      1789      1791      1794
      1791      1794      1796      1797      1791      1794      1796      1798
      1792      1791      1794      1795      1792      1791      1794      1796
      1793      1791      1794      1795      1793      1791      1794      1796
      1794      1796      1798      1799      1794      1796      1798      1800
      1794      1796      1798      1801      1795      1794      1796      1797
      1795      1794      1796      1798      1796      1798      1801      1802
      1796      1798      1801      1803      1796      1798      1801      1804
      1797      1796      1798      1799      1797      1796      1798      1800
      1797      1796      1798      1801      1798      1801      1804      1805
      1798      1801      1804      1806      1798      1801      1804      1807
      1799      1798      1801      1802      1799      1798      1801      1803
      1799      1798      1801      1804      1800      1798      1801      1802
      1800      1798      1801      1803      1800      1798      1801      1804
      1801      1804      1807      1808      1801      1804      1807      1809
      1801      1804      1807      1810      1802      1801      1804      1805
      1802      1801      1804      1806      1802      1801      1804      1807
      1803      1801      1804      1805      1803      1801      1804      1806
      1803      1801      1804      1807      1804      1807      1810      1811
      1804      1807      1810      1812      1804      1807      1810      1813
      1805      1804      1807      1808      1805      1804      1807      1809
      1805      1804      1807      1810      1806      1804      1807      1808
      1806      1804      1807      1809      1806      1804      1807      1810
      1808      1807      1810      1811      1808      1807      1810      1812
      1808      1807      1810      1813      1809      1807      1810      1811
      1809      1807      1810      1812      1809      1807      1810      1813
      1814      1817      1820      1821      1814      1817      1820      1822
      1814      1817      1820      1823      1815      1814      1817      1818
      1815      1814      1817      1819      1815      1814      1817      1820
      1816      1814      1817      1818      1816      1814      1817      1819
      1816      1814      1817      1820      1817      1820      1823      1824
      1817      1820      1823      1825      1817      1820      1823      1826
      1818      1817      1820      1821      1818      1817      1820      1822
      1818      1817      1820      1823      1819      1817      1820      1821
      1819      1817      1820      1822      1819      1817      1820      1823
      1820      1823      1826      1827      1820      1823      1826      1828
      1820      1823      1826      1829      1821      1820      1823      1824
      1821      1820      1823      1825      1821      1820      1823      1826
      1822      1820      1823      1824      1822      1820      1823      1825
      1822      1820      1823      1826      1823      1826      1829      1830
      1823      1826      1829      1831      1823      1826      1829      1832
      1824      1823      1826      1827      1824      1823      1826      1828
      1824      1823      1826      1829      1825      1823      1826      1827
      1825      1823      1826      1828      1825      1823      1826      1829
      1826      1829      1832      1833      1826      1829      1832      1834
      1826      1829      1832      1835      1827      1826      1829      1830
      1827      1826      1829      1831      1827      1826      1829      1832
      1828      1826      1829      1830      1828      1826      1829      1831
      1828      1826      1829      1832      1829      1832      1835      1836
      1829      1832      1835      1837      1829      1832      1835      1838
      1830      1829      1832      1833      1830      1829      1832      1834
      1830      1829      1832      1835      1831      1829      1832      1833
      1831      1829      1832      1834      1831      1829      1832      1835
      1832      1835      1838      1839      1832      1835      1838      1840
      1832      1835      1838      1841      1833      1832      1835      1836
      1833      1832      1835      1837      1833      1832      1835      1838
      1834      1832      1835      1836      1834      1832      1835      1837
      1834      1832      1835      1838      1835      1838      1841      1842
      1835      1838      1841      1843      1835      1838      1841      1844
      1836      1835      1838      1839      1836      1835      1838      1840
      1836      1835      1838      1841      1837      1835      1838      1839
      1837      1835      1838      1840      1837      1835      1838      1841
      1838      1841      1844      1845      1838      1841      1844      1846
      1838      1841      1844      1847      1839      1838      1841      1842
      1839      1838      1841      1843      1839      1838      1841      1844
      1840      1838      1841      1842      1840      1838      1841      1843
      1840      1838      1841      1844      1841      1844      1847      1848
      1841      1844      1847      1849      1841      1844      1847      1850
      1842      1841      1844      1845      1842      1841      1844      1846
      1842      1841      1844      1847      1843      1841      1844      1845
      1843      1841      1844      1846      1843      1841      1844      1847
      1844      1847      1850      1851      1844      1847      1850      1852
      1844      1847      1850      1853      1845      1844      1847      1848
      1845      1844      1847      1849      1845      1844      1847      1850
      1846      1844      1847      1848      1846      1844      1847      1849
      1846      1844      1847      1850      1847      1850      1853      1854
      1847      1850      1853      1855      1847      1850      1853      1856
      1848      1847      1850      1851      1848      1847      1850      1852
      1848      1847      1850      1853      1849      1847      1850      1851
      1849      1847      1850      1852      1849      1847      1850      1853
      1850      1853      1856      1857      1850      1853      1856      1858
      1850      1853      1856      1859      1851      1850      1853      1854
      1851      1850      1853      1855      1851      1850      1853      1856
      1852      1850      1853      1854      1852      1850      1853      1855
      1852      1850      1853      1856      1853      1856      1859      1860
      1853      1856      1859      1861      1853      1856      1859      1862
      1854      1853      1856      1857      1854      1853      1856      1858
      1854      1853      1856      1859      1855      1853      1856      1857
      1855      1853      1856      1858      1855      1853      1856      1859
      1857      1856      1859      1860      1857      1856      1859      1861
      1857      1856      1859      1862      1858      1856      1859      1860
      1858      1856      1859      1861      1858      1856      1859      1862
      5103      5107      5110      5111      5103      5107      5110      5141
      5103      5149      5146      5141      5103      5149      5146      5147
      5103      5149      5146      5148      5104      5103      5105      5106
      5104      5103      5107      5108      5104      5103      5107      5109
      5104      5103      5107      5110      5104      5103      5149      5146
      5104      5103      5149      5150      5104      5103      5149      5151
      5105      5103      5107      5108      5105      5103      5107      5109
      5105      5103      5107      5110      5105      5103      5149      5146
      5105      5103      5149      5150      5105      5103      5149      5151
      5106      5105      5103      5107      5106      5105      5103      5149
      5107      5103      5149      5146      5107      5103      5149      5150
      5107      5103      5149      5151      5107      5110      5111      5112
      5107      5110      5111      5113      5107      5110      5141      5139
      5107      5110      5141      5142      5107      5110      5141      5146
      5108      5107      5103      5149      5108      5107      5110      5111
      5108      5107      5110      5141      5109      5107      5103      5149
      5109      5107      5110      5111      5109      5107      5110      5141
      5110      5107      5103      5149      5110      5111      5113      5114
      5110      5111      5113      5115      5110      5111      5113      5116
      5110      5141      5139      5116      5110      5141      5139      5136
      5110      5141      5139      5140      5110      5141      5142      5143
      5110      5141      5142      5144      5110      5141      5142      5145
      5110      5141      5146      5147      5110      5141      5146      5148
      5110      5141      5146      5149      5111      5110      5141      5139
      5111      5110      5141      5142      5111      5110      5141      5146
      5111      5113      5116      5117      5111      5113      5116      5118
      5111      5113      5116      5139      5112      5111      5110      5141
      5112      5111      5113      5114      5112      5111      5113      5115
      5112      5111      5113      5116      5113      5111      5110      5141
      5113      5116      5118      5119      5113      5116      5118      5120
      5113      5116      5118      5128      5113      5116      5139      5136
      5113      5116      5139      5140      5113      5116      5139      5141
      5114      5113      5116      5117      5114      5113      5116      5118
      5114      5113      5116      5139      5115      5113      5116      5117
      5115      5113      5116      5118      5115      5113      5116      5139
      5116      5118      5120      5121      5116      5118      5120      5122
      5116      5118      5120      5123      5116      5118      5128      5126
      5116      5118      5128      5129      5116      5118      5128      5133
      5116      5139      5136      5133      5116      5139      5136      5137
      5116      5139      5136      5138      5116      5139      5141      5142
      5116      5139      5141      5146      5117      5116      5118      5119
      5117      5116      5118      5120      5117      5116      5118      5128
      5117      5116      5139      5136      5117      5116      5139      5140
      5117      5116      5139      5141      5118      5116      5139      5136
      5118      5116      5139      5140      5118      5116      5139      5141
      5118      5120      5123      5124      5118      5120      5123      5125
      5118      5120      5123      5126      5118      5128      5126      5123
      5118      5128      5126      5127      5118      5128      5126      5152
      5118      5128      5129      5130      5118      5128      5129      5131
      5118      5128      5129      5132      5118      5128      5133      5134
      5118      5128      5133      5135      5118      5128      5133      5136
      5119      5118      5116      5139      5119      5118      5120      5121
      5119      5118      5120      5122      5119      5118      5120      5123
      5119      5118      5128      5126      5119      5118      5128      5129
      5119      5118      5128      5133      5120      5118      5116      5139
      5120      5118      5128      5126      5120      5118      5128      5129
      5120      5118      5128      5133      5120      5123      5126      5127
      5120      5123      5126      5128      5120      5123      5126      5152
      5121      5120      5118      5128      5121      5120      5123      5124
      5121      5120      5123      5125      5121      5120      5123      5126
      5122      5120      5118      5128      5122      5120      5123      5124
      5122      5120      5123      5125      5122      5120      5123      5126
      5123      5120      5118      5128      5123      5126      5128      5129
      5123      5126      5128      5133      5123      5126      5152      5153
      5123      5126      5152      5154      5123      5126      5152      5158
      5124      5123      5126      5127      5124      5123      5126      5128
      5124      5123      5126      5152      5125      5123      5126      5127
      5125      5123      5126      5128      5125      5123      5126      5152
      5126      5128      5129      5130      5126      5128      5129      5131
      5126      5128      5129      5132      5126      5128      5133      5134
      5126      5128      5133      5135      5126      5128      5133      5136
      5126      5152      5154      5155      5126      5152      5154      5156
      5126      5152      5154      5157      5126      5152      5158      5159
      5126      5152      5158      5160      5126      5152      5158      5161
      5127      5126      5128      5129      5127      5126      5128      5133
      5127      5126      5152      5153      5127      5126      5152      5154
      5127      5126      5152      5158      5128      5118      5116      5139
      5128      5126      5152      5153      5128      5126      5152      5154
      5128      5126      5152      5158      5128      5133      5136      5137
      5128      5133      5136      5138      5128      5133      5136      5139
      5129      5128      5126      5152      5129      5128      5133      5134
      5129      5128      5133      5135      5129      5128      5133      5136
      5130      5129      5128      5133      5131      5129      5128      5133
      5132      5129      5128      5133      5133      5128      5126      5152
      5133      5136      5139      5140      5133      5136      5139      5141
      5134      5133      5136      5137      5134      5133      5136      5138
      5134      5133      5136      5139      5135      5133      5136      5137
      5135      5133      5136      5138      5135      5133      5136      5139
      5136      5139      5141      5142      5136      5139      5141      5146
      5137      5136      5139      5140      5137      5136      5139      5141
      5138      5136      5139      5140      5138      5136      5139      5141
      5139      5141      5142      5143      5139      5141      5142      5144
      5139      5141      5142      5145      5139      5141      5146      5147
      5139      5141      5146      5148      5139      5141      5146      5149
      5140      5139      5141      5142      5140      5139      5141      5146
      5141      5146      5149      5150      5141      5146      5149      5151
      5142      5141      5146      5147      5142      5141      5146      5148
      5142      5141      5146      5149      5143      5142      5141      5146
      5144      5142      5141      5146      5145      5142      5141      5146
      5147      5146      5149      5150      5147      5146      5149      5151
      5148      5146      5149      5150      5148      5146      5149      5151
      5152      5158      5161      5162      5152      5158      5161      5163
      5152      5158      5161      5164      5153      5152      5154      5155
      5153      5152      5154      5156      5153      5152      5154      5157
      5153      5152      5158      5159      5153      5152      5158      5160
      5153      5152      5158      5161      5154      5152      5158      5159
      5154      5152      5158      5160      5154      5152      5158      5161
      5155      5154      5152      5158      5156      5154      5152      5158
      5157      5154      5152      5158      5158      5161      5164      5165
      5158      5161      5164      5166      5158      5161      5164      5167
      5159      5158      5161      5162      5159      5158      5161      5163
      5159      5158      5161      5164      5160      5158      5161      5162
      5160      5158      5161      5163      5160      5158      5161      5164
      5161      5164      5167      5168      5161      5164      5167      5169
      5161      5164      5167      5173      5162      5161      5164      5165
      5162      5161      5164      5166      5162      5161      5164      5167
      5163      5161      5164      5165      5163      5161      5164      5166
      5163      5161      5164      5167      5164      5167      5169      5170
      5164      5167      5169      5171      5164      5167      5169      5172
      5164      5167      5173      5174      5164      5167      5173      5175
      5164      5167      5173      5176      5165      5164      5167      5168
      5165      5164      5167      5169      5165      5164      5167      5173
      5166      5164      5167      5168      5166      5164      5167      5169
      5166      5164      5167      5173      5168      5167      5169      5170
      5168      5167      5169      5171      5168      5167      5169      5172
      5168      5167      5173      5174      5168      5167      5173      5175
      5168      5167      5173      5176      5169      5167      5173      5174
      5169      5167      5173      5175      5169      5167      5173      5176
      5170      5169      5167      5173      5171      5169      5167      5173
      5172      5169      5167      5173     13594     13607     13610     13611
     13594     13607     13610     13612     13594     13607     13610     13617
     13595     13594     13599     13600     13595     13594     13599     13601
     13595     13594     13599     13602     13595     13594     13603     13604
     13595     13594     13603     13605     13595     13594     13603     13606
     13595     13594     13607     13608     13595     13594     13607     13609
     13595     13594     13607     13610     13596     13595     13594     13599
     13596     13595     13594     13603     13596     13595     13594     13607
     13597     13595     13594     13599     13597     13595     13594     13603
     13597     13595     13594     13607     13598     13595     13594     13599
     13598     13595     13594     13603     13598     13595     13594     13607
     13599     13594     13603     13604     13599     13594     13603     13605
     13599     13594     13603     13606     13599     13594     13607     13608
     13599     13594     13607     13609     13599     13594     13607     13610
     13600     13599     13594     13603     13600     13599     13594     13607
     13601     13599     13594     13603     13601     13599     13594     13607
     13602     13599     13594     13603     13602     13599     13594     13607
     13603     13594     13607     13608     13603     13594     13607     13609
     13603     13594     13607     13610     13604     13603     13594     13607
     13605     13603     13594     13607     13606     13603     13594     13607
     13607     13610     13617     13613     13608     13607     13610     13611
     13608     13607     13610     13612     13608     13607     13610     13617
     13609     13607     13610     13611     13609     13607     13610     13612
     13609     13607     13610     13617     13610     13617     13613     13614
     13610     13617     13613     13615     13610     13617     13613     13616
     13611     13610     13617     13613     13612     13610     13617     13613
     13613     13616     13618     13619     13613     13616     13618     13620
     13613     13616     13618     13623     13614     13613     13616     13618
     13615     13613     13616     13618     13616     13618     13623     13621
     13616     13618     13623     13624     13616     13618     13623     13625
     13617     13613     13616     13618     13618     13623     13621     13622
     13618     13623     13621     13673     13618     13623     13625     13626
     13618     13623     13625     13627     13618     13623     13625     13629
     13619     13618     13623     13621     13619     13618     13623     13624
     13619     13618     13623     13625     13620     13618     13623     13621
     13620     13618     13623     13624     13620     13618     13623     13625
     13621     13623     13625     13626     13621     13623     13625     13627
     13621     13623     13625     13629     13621     13673     13675     13676
     13621     13673     13675     13677     13621     13673     13675     13678
     13622     13621     13623     13624     13622     13621     13623     13625
     13622     13621     13673     13674     13622     13621     13673     13675
     13623     13621     13673     13674     13623     13621     13673     13675
     13623     13625     13627     13628     13623     13625     13629     13630
     13623     13625     13629     13631     13624     13623     13621     13673
     13624     13623     13625     13626     13624     13623     13625     13627
     13624     13623     13625     13629     13625     13623     13621     13673
     13625     13629     13631     13632     13625     13629     13631     13633
     13626     13625     13627     13628     13626     13625     13629     13630
     13626     13625     13629     13631     13627     13625     13629     13630
     13627     13625     13629     13631     13628     13627     13625     13629
     13629     13631     13633     13634     13629     13631     13633     13635
     13629     13631     13633     13636     13630     13629     13631     13632
     13630     13629     13631     13633     13631     13633     13636     13637
     13631     13633     13636     13638     13631     13633     13636     13639
     13632     13631     13633     13634     13632     13631     13633     13635
     13632     13631     13633     13636     13633     13636     13639     13640
     13633     13636     13639     13641     13633     13636     13639     13642
     13634     13633     13636     13637     13634     13633     13636     13638
     13634     13633     13636     13639     13635     13633     13636     13637
     13635     13633     13636     13638     13635     13633     13636     13639
     13636     13639     13642     13643     13636     13639     13642     13644
     13636     13639     13642     13645     13637     13636     13639     13640
     13637     13636     13639     13641     13637     13636     13639     13642
     13638     13636     13639     13640     13638     13636     13639     13641
     13638     13636     13639     13642     13639     13642     13645     13646
     13639     13642     13645     13647     13639     13642     13645     13648
     13640     13639     13642     13643     13640     13639     13642     13644
     13640     13639     13642     13645     13641     13639     13642     13643
     13641     13639     13642     13644     13641     13639     13642     13645
     13642     13645     13648     13649     13642     13645     13648     13650
     13642     13645     13648     13651     13643     13642     13645     13646
     13643     13642     13645     13647     13643     13642     13645     13648
     13644     13642     13645     13646     13644     13642     13645     13647
     13644     13642     13645     13648     13645     13648     13651     13652
     13645     13648     13651     13653     13645     13648     13651     13654
     13646     13645     13648     13649     13646     13645     13648     13650
     13646     13645     13648     13651     13647     13645     13648     13649
     13647     13645     13648     13650     13647     13645     13648     13651
     13648     13651     13654     13655     13648     13651     13654     13656
     13648     13651     13654     13657     13649     13648     13651     13652
     13649     13648     13651     13653     13649     13648     13651     13654
     13650     13648     13651     13652     13650     13648     13651     13653
     13650     13648     13651     13654     13651     13654     13657     13658
     13651     13654     13657     13659     13651     13654     13657     13660
     13652     13651     13654     13655     13652     13651     13654     13656
     13652     13651     13654     13657     13653     13651     13654     13655
     13653     13651     13654     13656     13653     13651     13654     13657
     13654     13657     13660     13661     13654     13657     13660     13662
     13654     13657     13660     13663     13655     13654     13657     13658
     13655     13654     13657     13659     13655     13654     13657     13660
     13656     13654     13657     13658     13656     13654     13657     13659
     13656     13654     13657     13660     13657     13660     13663     13664
     13657     13660     13663     13665     13657     13660     13663     13666
     13658     13657     13660     13661     13658     13657     13660     13662
     13658     13657     13660     13663     13659     13657     13660     13661
     13659     13657     13660     13662     13659     13657     13660     13663
     13660     13663     13666     13667     13660     13663     13666     13668
     13660     13663     13666     13669     13661     13660     13663     13664
     13661     13660     13663     13665     13661     13660     13663     13666
     13662     13660     13663     13664     13662     13660     13663     13665
     13662     13660     13663     13666     13663     13666     13669     13670
     13663     13666     13669     13671     13663     13666     13669     13672
     13664     13663     13666     13667     13664     13663     13666     13668
     13664     13663     13666     13669     13665     13663     13666     13667
     13665     13663     13666     13668     13665     13663     13666     13669
     13667     13666     13669     13670     13667     13666     13669     13671
     13667     13666     13669     13672     13668     13666     13669     13670
     13668     13666     13669     13671     13668     13666     13669     13672
     13673     13675     13678     13679     13673     13675     13678     13680
     13673     13675     13678     13681     13674     13673     13675     13676
     13674     13673     13675     13677     13674     13673     13675     13678
     13675     13678     13681     13682     13675     13678     13681     13683
     13675     13678     13681     13684     13676     13675     13678     13679
     13676     13675     13678     13680     13676     13675     13678     13681
     13677     13675     13678     13679     13677     13675     13678     13680
     13677     13675     13678     13681     13678     13681     13684     13685
     13678     13681     13684     13686     13678     13681     13684     13687
     13679     13678     13681     13682     13679     13678     13681     13683
     13679     13678     13681     13684     13680     13678     13681     13682
     13680     13678     13681     13683     13680     13678     13681     13684
     13681     13684     13687     13688     13681     13684     13687     13689
     13681     13684     13687     13690     13682     13681     13684     13685
     13682     13681     13684     13686     13682     13681     13684     13687
     13683     13681     13684     13685     13683     13681     13684     13686
     13683     13681     13684     13687     13684     13687     13690     13691
     13684     13687     13690     13692     13684     13687     13690     13693
     13685     13684     13687     13688     13685     13684     13687     13689
     13685     13684     13687     13690     13686     13684     13687     13688
     13686     13684     13687     13689     13686     13684     13687     13690
     13687     13690     13693     13694     13687     13690     13693     13695
     13687     13690     13693     13696     13688     13687     13690     13691
     13688     13687     13690     13692     13688     13687     13690     13693
     13689     13687     13690     13691     13689     13687     13690     13692
     13689     13687     13690     13693     13690     13693     13696     13697
     13690     13693     13696     13698     13691     13690     13693     13694
     13691     13690     13693     13695     13691     13690     13693     13696
     13692     13690     13693     13694     13692     13690     13693     13695
     13692     13690     13693     13696     13693     13696     13698     13699
     13693     13696     13698     13700     13694     13693     13696     13697
     13694     13693     13696     13698     13695     13693     13696     13697
     13695     13693     13696     13698     13696     13698     13700     13701
     13696     13698     13700     13702     13696     13698     13700     13703
     13697     13696     13698     13699     13697     13696     13698     13700
     13698     13700     13703     13704     13698     13700     13703     13705
     13698     13700     13703     13706     13699     13698     13700     13701
     13699     13698     13700     13702     13699     13698     13700     13703
     13700     13703     13706     13707     13700     13703     13706     13708
     13700     13703     13706     13709     13701     13700     13703     13704
     13701     13700     13703     13705     13701     13700     13703     13706
     13702     13700     13703     13704     13702     13700     13703     13705
     13702     13700     13703     13706     13703     13706     13709     13710
     13703     13706     13709     13711     13703     13706     13709     13712
     13704     13703     13706     13707     13704     13703     13706     13708
     13704     13703     13706     13709     13705     13703     13706     13707
     13705     13703     13706     13708     13705     13703     13706     13709
     13706     13709     13712     13713     13706     13709     13712     13714
     13706     13709     13712     13715     13707     13706     13709     13710
     13707     13706     13709     13711     13707     13706     13709     13712
     13708     13706     13709     13710     13708     13706     13709     13711
     13708     13706     13709     13712     13709     13712     13715     13716
     13709     13712     13715     13717     13709     13712     13715     13718
     13710     13709     13712     13713     13710     13709     13712     13714
     13710     13709     13712     13715     13711     13709     13712     13713
     13711     13709     13712     13714     13711     13709     13712     13715
     13712     13715     13718     13719     13712     13715     13718     13720
     13712     13715     13718     13721     13713     13712     13715     13716
     13713     13712     13715     13717     13713     13712     13715     13718
     13714     13712     13715     13716     13714     13712     13715     13717
     13714     13712     13715     13718     13715     13718     13721     13722
     13715     13718     13721     13723     13715     13718     13721     13724
     13716     13715     13718     13719     13716     13715     13718     13720
     13716     13715     13718     13721     13717     13715     13718     13719
     13717     13715     13718     13720     13717     13715     13718     13721
     13719     13718     13721     13722     13719     13718     13721     13723
     13719     13718     13721     13724     13720     13718     13721     13722
     13720     13718     13721     13723     13720     13718     13721     13724
     13725     13738     13741     13742     13725     13738     13741     13743
     13725     13738     13741     13748     13726     13725     13730     13731
     13726     13725     13730     13732     13726     13725     13730     13733
     13726     13725     13734     13735     13726     13725     13734     13736
     13726     13725     13734     13737     13726     13725     13738     13739
     13726     13725     13738     13740     13726     13725     13738     13741
     13727     13726     13725     13730     13727     13726     13725     13734
     13727     13726     13725     13738     13728     13726     13725     13730
     13728     13726     13725     13734     13728     13726     13725     13738
     13729     13726     13725     13730     13729     13726     13725     13734
     13729     13726     13725     13738     13730     13725     13734     13735
     13730     13725     13734     13736     13730     13725     13734     13737
     13730     13725     13738     13739     13730     13725     13738     13740
     13730     13725     13738     13741     13731     13730     13725     13734
     13731     13730     13725     13738     13732     13730     13725     13734
     13732     13730     13725     13738     13733     13730     13725     13734
     13733     13730     13725     13738     13734     13725     13738     13739
     13734     13725     13738     13740     13734     13725     13738     13741
     13735     13734     13725     13738     13736     13734     13725     13738
     13737     13734     13725     13738     13738     13741     13748     13744
     13739     13738     13741     13742     13739     13738     13741     13743
     13739     13738     13741     13748     13740     13738     13741     13742
     13740     13738     13741     13743     13740     13738     13741     13748
     13741     13748     13744     13745     13741     13748     13744     13746
     13741     13748     13744     13747     13742     13741     13748     13744
     13743     13741     13748     13744     13744     13747     13749     13750
     13744     13747     13749     13751     13744     13747     13749     13754
     13745     13744     13747     13749     13746     13744     13747     13749
     13747     13749     13754     13752     13747     13749     13754     13755
     13747     13749     13754     13756     13748     13744     13747     13749
     13749     13754     13752     13753     13749     13754     13752     13804
     13749     13754     13756     13757     13749     13754     13756     13758
     13749     13754     13756     13760     13750     13749     13754     13752
     13750     13749     13754     13755     13750     13749     13754     13756
     13751     13749     13754     13752     13751     13749     13754     13755
     13751     13749     13754     13756     13752     13754     13756     13757
     13752     13754     13756     13758     13752     13754     13756     13760
     13752     13804     13806     13807     13752     13804     13806     13808
     13752     13804     13806     13809     13753     13752     13754     13755
     13753     13752     13754     13756     13753     13752     13804     13805
     13753     13752     13804     13806     13754     13752     13804     13805
     13754     13752     13804     13806     13754     13756     13758     13759
     13754     13756     13760     13761     13754     13756     13760     13762
     13755     13754     13752     13804     13755     13754     13756     13757
     13755     13754     13756     13758     13755     13754     13756     13760
     13756     13754     13752     13804     13756     13760     13762     13763
     13756     13760     13762     13764     13757     13756     13758     13759
     13757     13756     13760     13761     13757     13756     13760     13762
     13758     13756     13760     13761     13758     13756     13760     13762
     13759     13758     13756     13760     13760     13762     13764     13765
     13760     13762     13764     13766     13760     13762     13764     13767
     13761     13760     13762     13763     13761     13760     13762     13764
     13762     13764     13767     13768     13762     13764     13767     13769
     13762     13764     13767     13770     13763     13762     13764     13765
     13763     13762     13764     13766     13763     13762     13764     13767
     13764     13767     13770     13771     13764     13767     13770     13772
     13764     13767     13770     13773     13765     13764     13767     13768
     13765     13764     13767     13769     13765     13764     13767     13770
     13766     13764     13767     13768     13766     13764     13767     13769
     13766     13764     13767     13770     13767     13770     13773     13774
     13767     13770     13773     13775     13767     13770     13773     13776
     13768     13767     13770     13771     13768     13767     13770     13772
     13768     13767     13770     13773     13769     13767     13770     13771
     13769     13767     13770     13772     13769     13767     13770     13773
     13770     13773     13776     13777     13770     13773     13776     13778
     13770     13773     13776     13779     13771     13770     13773     13774
     13771     13770     13773     13775     13771     13770     13773     13776
     13772     13770     13773     13774     13772     13770     13773     13775
     13772     13770     13773     13776     13773     13776     13779     13780
     13773     13776     13779     13781     13773     13776     13779     13782
     13774     13773     13776     13777     13774     13773     13776     13778
     13774     13773     13776     13779     13775     13773     13776     13777
     13775     13773     13776     13778     13775     13773     13776     13779
     13776     13779     13782     13783     13776     13779     13782     13784
     13776     13779     13782     13785     13777     13776     13779     13780
     13777     13776     13779     13781     13777     13776     13779     13782
     13778     13776     13779     13780     13778     13776     13779     13781
     13778     13776     13779     13782     13779     13782     13785     13786
     13779     13782     13785     13787     13779     13782     13785     13788
     13780     13779     13782     13783     13780     13779     13782     13784
     13780     13779     13782     13785     13781     13779     13782     13783
     13781     13779     13782     13784     13781     13779     13782     13785
     13782     13785     13788     13789     13782     13785     13788     13790
     13782     13785     13788     13791     13783     13782     13785     13786
     13783     13782     13785     13787     13783     13782     13785     13788
     13784     13782     13785     13786     13784     13782     13785     13787
     13784     13782     13785     13788     13785     13788     13791     13792
     13785     13788     13791     13793     13785     13788     13791     13794
     13786     13785     13788     13789     13786     13785     13788     13790
     13786     13785     13788     13791     13787     13785     13788     13789
     13787     13785     13788     13790     13787     13785     13788     13791
     13788     13791     13794     13795     13788     13791     13794     13796
     13788     13791     13794     13797     13789     13788     13791     13792
     13789     13788     13791     13793     13789     13788     13791     13794
     13790     13788     13791     13792     13790     13788     13791     13793
     13790     13788     13791     13794     13791     13794     13797     13798
     13791     13794     13797     13799     13791     13794     13797     13800
     13792     13791     13794     13795     13792     13791     13794     13796
     13792     13791     13794     13797     13793     13791     13794     13795
     13793     13791     13794     13796     13793     13791     13794     13797
     13794     13797     13800     13801     13794     13797     13800     13802
     13794     13797     13800     13803     13795     13794     13797     13798
     13795     13794     13797     13799     13795     13794     13797     13800
     13796     13794     13797     13798     13796     13794     13797     13799
     13796     13794     13797     13800     13798     13797     13800     13801
     13798     13797     13800     13802     13798     13797     13800     13803
     13799     13797     13800     13801     13799     13797     13800     13802
     13799     13797     13800     13803     13804     13806     13809     13810
     13804     13806     13809     13811     13804     13806     13809     13812
     13805     13804     13806     13807     13805     13804     13806     13808
     13805     13804     13806     13809     13806     13809     13812     13813
     13806     13809     13812     13814     13806     13809     13812     13815
     13807     13806     13809     13810     13807     13806     13809     13811
     13807     13806     13809     13812     13808     13806     13809     13810
     13808     13806     13809     13811     13808     13806     13809     13812
     13809     13812     13815     13816     13809     13812     13815     13817
     13809     13812     13815     13818     13810     13809     13812     13813
     13810     13809     13812     13814     13810     13809     13812     13815
     13811     13809     13812     13813     13811     13809     13812     13814
     13811     13809     13812     13815     13812     13815     13818     13819
     13812     13815     13818     13820     13812     13815     13818     13821
     13813     13812     13815     13816     13813     13812     13815     13817
     13813     13812     13815     13818     13814     13812     13815     13816
     13814     13812     13815     13817     13814     13812     13815     13818
     13815     13818     13821     13822     13815     13818     13821     13823
     13815     13818     13821     13824     13816     13815     13818     13819
     13816     13815     13818     13820     13816     13815     13818     13821
     13817     13815     13818     13819     13817     13815     13818     13820
     13817     13815     13818     13821     13818     13821     13824     13825
     13818     13821     13824     13826     13818     13821     13824     13827
     13819     13818     13821     13822     13819     13818     13821     13823
     13819     13818     13821     13824     13820     13818     13821     13822
     13820     13818     13821     13823     13820     13818     13821     13824
     13821     13824     13827     13828     13821     13824     13827     13829
     13822     13821     13824     13825     13822     13821     13824     13826
     13822     13821     13824     13827     13823     13821     13824     13825
     13823     13821     13824     13826     13823     13821     13824     13827
     13824     13827     13829     13830     13824     13827     13829     13831
     13825     13824     13827     13828     13825     13824     13827     13829
     13826     13824     13827     13828     13826     13824     13827     13829
     13827     13829     13831     13832     13827     13829     13831     13833
     13827     13829     13831     13834     13828     13827     13829     13830
     13828     13827     13829     13831     13829     13831     13834     13835
     13829     13831     13834     13836     13829     13831     13834     13837
     13830     13829     13831     13832     13830     13829     13831     13833
     13830     13829     13831     13834     13831     13834     13837     13838
     13831     13834     13837     13839     13831     13834     13837     13840
     13832     13831     13834     13835     13832     13831     13834     13836
     13832     13831     13834     13837     13833     13831     13834     13835
     13833     13831     13834     13836     13833     13831     13834     13837
     13834     13837     13840     13841     13834     13837     13840     13842
     13834     13837     13840     13843     13835     13834     13837     13838
     13835     13834     13837     13839     13835     13834     13837     13840
     13836     13834     13837     13838     13836     13834     13837     13839
     13836     13834     13837     13840     13837     13840     13843     13844
     13837     13840     13843     13845     13837     13840     13843     13846
     13838     13837     13840     13841     13838     13837     13840     13842
     13838     13837     13840     13843     13839     13837     13840     13841
     13839     13837     13840     13842     13839     13837     13840     13843
     13840     13843     13846     13847     13840     13843     13846     13848
     13840     13843     13846     13849     13841     13840     13843     13844
     13841     13840     13843     13845     13841     13840     13843     13846
     13842     13840     13843     13844     13842     13840     13843     13845
     13842     13840     13843     13846     13843     13846     13849     13850
     13843     13846     13849     13851     13843     13846     13849     13852
     13844     13843     13846     13847     13844     13843     13846     13848
     13844     13843     13846     13849     13845     13843     13846     13847
     13845     13843     13846     13848     13845     13843     13846     13849
     13846     13849     13852     13853     13846     13849     13852     13854
     13846     13849     13852     13855     13847     13846     13849     13850
     13847     13846     13849     13851     13847     13846     13849     13852
     13848     13846     13849     13850     13848     13846     13849     13851
     13848     13846     13849     13852     13850     13849     13852     13853
     13850     13849     13852     13854     13850     13849     13852     13855
     13851     13849     13852     13853     13851     13849     13852     13854
     13851     13849     13852     13855     17786     17790     17793     17794
     17786     17790     17793     17795     17786     17790     17793     17799
     17787     17786     17790     17791     17787     17786     17790     17792
     17787     17786     17790     17793     17788     17786     17790     17791
     17788     17786     17790     17792     17788     17786     17790     17793
     17789     17786     17790     17791     17789     17786     17790     17792
     17789     17786     17790     17793     17790     17793     17799     17796
     17791     17790     17793     17794     17791     17790     17793     17795
     17791     17790     17793     17799     17792     17790     17793     17794
     17792     17790     17793     17795     17792     17790     17793     17799
     17793     17799     17796     17797     17793     17799     17796     17798
     17793     17799     17796     17800     17794     17793     17799     17796
     17795     17793     17799     17796     17796     17800     17801     17802
     17796     17800     17801     17803     17796     17800     17801     17804
     17797     17796     17800     17801     17798     17796     17800     17801
     17799     17796     17800     17801     17800     17801     17804     17805
     17800     17801     17804     17806     17800     17801     17804     17812
     17801     17804     17806     17807     17801     17804     17812     17813
     17801     17804     17812     17814     17801     17804     17812     17815
     17802     17801     17804     17805     17802     17801     17804     17806
     17802     17801     17804     17812     17803     17801     17804     17805
     17803     17801     17804     17806     17803     17801     17804     17812
     17804     17806     17807     17808     17804     17806     17807     17809
     17804     17812     17815     17816     17805     17804     17806     17807
     17805     17804     17812     17813     17805     17804     17812     17814
     17805     17804     17812     17815     17806     17804     17812     17813
     17806     17804     17812     17814     17806     17804     17812     17815
     17806     17807     17809     17810     17806     17807     17809     17811
     17806     17807     17809     17821     17807     17806     17804     17812
     17807     17809     17821     17822     17807     17809     17821     17823
     17807     17809     17821     17824     17808     17807     17809     17810
     17808     17807     17809     17811     17808     17807     17809     17821
     17809     17821     17824     17825     17809     17821     17824     17826
     17809     17821     17824     17827     17810     17809     17821     17822
     17810     17809     17821     17823     17810     17809     17821     17824
     17811     17809     17821     17822     17811     17809     17821     17823
     17811     17809     17821     17824     17812     17815     17816     17817
     17812     17815     17816     17818     17813     17812     17815     17816
     17814     17812     17815     17816     17815     17816     17818     17819
     17815     17816     17818     17820     17815     17816     17818     17868
     17816     17818     17868     17869     17816     17818     17868     17870
     17816     17818     17868     17871     17817     17816     17818     17819
     17817     17816     17818     17820     17817     17816     17818     17868
     17818     17868     17871     17872     17818     17868     17871     17873
     17818     17868     17871     17874     17819     17818     17868     17869
     17819     17818     17868     17870     17819     17818     17868     17871
     17820     17818     17868     17869     17820     17818     17868     17870
     17820     17818     17868     17871     17821     17824     17827     17828
     17821     17824     17827     17829     17822     17821     17824     17825
     17822     17821     17824     17826     17822     17821     17824     17827
     17823     17821     17824     17825     17823     17821     17824     17826
     17823     17821     17824     17827     17824     17827     17829     17830
     17824     17827     17829     17831     17825     17824     17827     17828
     17825     17824     17827     17829     17826     17824     17827     17828
     17826     17824     17827     17829     17827     17829     17831     17832
     17827     17829     17831     17833     17827     17829     17831     17834
     17828     17827     17829     17830     17828     17827     17829     17831
     17829     17831     17834     17835     17829     17831     17834     17836
     17830     17829     17831     17832     17830     17829     17831     17833
     17830     17829     17831     17834     17831     17834     17836     17837
     17831     17834     17836     17838     17832     17831     17834     17835
     17832     17831     17834     17836     17833     17831     17834     17835
     17833     17831     17834     17836     17834     17836     17838     17839
     17834     17836     17838     17840     17834     17836     17838     17841
     17835     17834     17836     17837     17835     17834     17836     17838
     17836     17838     17841     17842     17836     17838     17841     17843
     17837     17836     17838     17839     17837     17836     17838     17840
     17837     17836     17838     17841     17838     17841     17843     17844
     17838     17841     17843     17845     17839     17838     17841     17842
     17839     17838     17841     17843     17840     17838     17841     17842
     17840     17838     17841     17843     17841     17843     17845     17846
     17841     17843     17845     17847     17841     17843     17845     17848
     17842     17841     17843     17844     17842     17841     17843     17845
     17843     17845     17848     17849     17843     17845     17848     17850
     17844     17843     17845     17846     17844     17843     17845     17847
     17844     17843     17845     17848     17845     17848     17850     17851
     17845     17848     17850     17852     17846     17845     17848     17849
     17846     17845     17848     17850     17847     17845     17848     17849
     17847     17845     17848     17850     17848     17850     17852     17853
     17848     17850     17852     17854     17848     17850     17852     17855
     17849     17848     17850     17851     17849     17848     17850     17852
     17850     17852     17855     17856     17850     17852     17855     17857
     17850     17852     17855     17858     17851     17850     17852     17853
     17851     17850     17852     17854     17851     17850     17852     17855
     17852     17855     17858     17859     17852     17855     17858     17860
     17852     17855     17858     17861     17853     17852     17855     17856
     17853     17852     17855     17857     17853     17852     17855     17858
     17854     17852     17855     17856     17854     17852     17855     17857
     17854     17852     17855     17858     17855     17858     17861     17862
     17855     17858     17861     17863     17855     17858     17861     17864
     17856     17855     17858     17859     17856     17855     17858     17860
     17856     17855     17858     17861     17857     17855     17858     17859
     17857     17855     17858     17860     17857     17855     17858     17861
     17858     17861     17864     17865     17858     17861     17864     17866
     17858     17861     17864     17867     17859     17858     17861     17862
     17859     17858     17861     17863     17859     17858     17861     17864
     17860     17858     17861     17862     17860     17858     17861     17863
     17860     17858     17861     17864     17862     17861     17864     17865
     17862     17861     17864     17866     17862     17861     17864     17867
     17863     17861     17864     17865     17863     17861     17864     17866
     17863     17861     17864     17867     17868     17871     17874     17875
     17868     17871     17874     17876     17868     17871     17874     17877
     17869     17868     17871     17872     17869     17868     17871     17873
     17869     17868     17871     17874     17870     17868     17871     17872
     17870     17868     17871     17873     17870     17868     17871     17874
     17871     17874     17877     17878     17871     17874     17877     17879
     17871     17874     17877     17880     17872     17871     17874     17875
     17872     17871     17874     17876     17872     17871     17874     17877
     17873     17871     17874     17875     17873     17871     17874     17876
     17873     17871     17874     17877     17874     17877     17880     17881
     17874     17877     17880     17882     17874     17877     17880     17883
     17875     17874     17877     17878     17875     17874     17877     17879
     17875     17874     17877     17880     17876     17874     17877     17878
     17876     17874     17877     17879     17876     17874     17877     17880
     17877     17880     17883     17884     17877     17880     17883     17885
     17877     17880     17883     17886     17878     17877     17880     17881
     17878     17877     17880     17882     17878     17877     17880     17883
     17879     17877     17880     17881     17879     17877     17880     17882
     17879     17877     17880     17883     17880     17883     17886     17887
     17880     17883     17886     17888     17880     17883     17886     17889
     17881     17880     17883     17884     17881     17880     17883     17885
     17881     17880     17883     17886     17882     17880     17883     17884
     17882     17880     17883     17885     17882     17880     17883     17886
     17883     17886     17889     17890     17883     17886     17889     17891
     17883     17886     17889     17892     17884     17883     17886     17887
     17884     17883     17886     17888     17884     17883     17886     17889
     17885     17883     17886     17887     17885     17883     17886     17888
     17885     17883     17886     17889     17886     17889     17892     17893
     17886     17889     17892     17894     17886     17889     17892     17895
     17887     17886     17889     17890     17887     17886     17889     17891
     17887     17886     17889     17892     17888     17886     17889     17890
     17888     17886     17889     17891     17888     17886     17889     17892
     17889     17892     17895     17896     17889     17892     17895     17897
     17889     17892     17895     17898     17890     17889     17892     17893
     17890     17889     17892     17894     17890     17889     17892     17895
     17891     17889     17892     17893     17891     17889     17892     17894
     17891     17889     17892     17895     17892     17895     17898     17899
     17892     17895     17898     17900     17892     17895     17898     17901
     17893     17892     17895     17896     17893     17892     17895     17897
     17893     17892     17895     17898     17894     17892     17895     17896
     17894     17892     17895     17897     17894     17892     17895     17898
     17895     17898     17901     17902     17895     17898     17901     17903
     17895     17898     17901     17904     17896     17895     17898     17899
     17896     17895     17898     17900     17896     17895     17898     17901
     17897     17895     17898     17899     17897     17895     17898     17900
     17897     17895     17898     17901     17898     17901     17904     17905
     17898     17901     17904     17906     17898     17901     17904     17907
     17899     17898     17901     17902     17899     17898     17901     17903
     17899     17898     17901     17904     17900     17898     17901     17902
     17900     17898     17901     17903     17900     17898     17901     17904
     17901     17904     17907     17908     17901     17904     17907     17909
     17901     17904     17907     17910     17902     17901     17904     17905
     17902     17901     17904     17906     17902     17901     17904     17907
     17903     17901     17904     17905     17903     17901     17904     17906
     17903     17901     17904     17907     17904     17907     17910     17911
     17904     17907     17910     17912     17904     17907     17910     17913
     17905     17904     17907     17908     17905     17904     17907     17909
     17905     17904     17907     17910     17906     17904     17907     17908
     17906     17904     17907     17909     17906     17904     17907     17910
     17907     17910     17913     17914     17907     17910     17913     17915
     17907     17910     17913     17916     17908     17907     17910     17911
     17908     17907     17910     17912     17908     17907     17910     17913
     17909     17907     17910     17911     17909     17907     17910     17912
     17909     17907     17910     17913     17911     17910     17913     17914
     17911     17910     17913     17915     17911     17910     17913     17916
     17912     17910     17913     17914     17912     17910     17913     17915
     17912     17910     17913     17916      9497      9498      9513      9514
      9497      9498      9513      9515      9497      9498      9513      9519
      9498      9497      9501      9502      9498      9497      9501      9503
      9498      9497      9501      9504      9498      9497      9505      9506
      9498      9497      9505      9507      9498      9497      9505      9508
      9498      9497      9509      9510      9498      9497      9509      9511
      9498      9497      9509      9512      9498      9513      9519      9516
      9499      9498      9497      9501      9499      9498      9497      9505
      9499      9498      9497      9509      9499      9498      9513      9514
      9499      9498      9513      9515      9499      9498      9513      9519
      9500      9498      9497      9501      9500      9498      9497      9505
      9500      9498      9497      9509      9500      9498      9513      9514
      9500      9498      9513      9515      9500      9498      9513      9519
      9501      9497      9498      9513      9501      9497      9505      9506
      9501      9497      9505      9507      9501      9497      9505      9508
      9501      9497      9509      9510      9501      9497      9509      9511
      9501      9497      9509      9512      9502      9501      9497      9505
      9502      9501      9497      9509      9503      9501      9497      9505
      9503      9501      9497      9509      9504      9501      9497      9505
      9504      9501      9497      9509      9505      9497      9498      9513
      9505      9497      9509      9510      9505      9497      9509      9511
      9505      9497      9509      9512      9506      9505      9497      9509
      9507      9505      9497      9509      9508      9505      9497      9509
      9509      9497      9498      9513      9513      9519      9516      9517
      9513      9519      9516      9518      9513      9519      9516      9520
      9514      9513      9519      9516      9515      9513      9519      9516
      9516      9520      9521      9522      9516      9520      9521      9523
      9516      9520      9521      9524      9517      9516      9520      9521
      9518      9516      9520      9521      9519      9516      9520      9521
      9520      9521      9524      9525      9520      9521      9524      9526
      9520      9521      9524      9532      9521      9524      9526      9527
      9521      9524      9532      9533      9521      9524      9532      9534
      9521      9524      9532      9535      9522      9521      9524      9525
      9522      9521      9524      9526      9522      9521      9524      9532
      9523      9521      9524      9525      9523      9521      9524      9526
      9523      9521      9524      9532      9524      9526      9527      9528
      9524      9526      9527      9529      9524      9532      9535      9536
      9525      9524      9526      9527      9525      9524      9532      9533
      9525      9524      9532      9534      9525      9524      9532      9535
      9526      9524      9532      9533      9526      9524      9532      9534
      9526      9524      9532      9535      9526      9527      9529      9530
      9526      9527      9529      9531      9526      9527      9529      9541
      9527      9526      9524      9532      9527      9529      9541      9542
      9527      9529      9541      9543      9527      9529      9541      9544
      9528      9527      9529      9530      9528      9527      9529      9531
      9528      9527      9529      9541      9529      9541      9544      9545
      9529      9541      9544      9546      9529      9541      9544      9547
      9530      9529      9541      9542      9530      9529      9541      9543
      9530      9529      9541      9544      9531      9529      9541      9542
      9531      9529      9541      9543      9531      9529      9541      9544
      9532      9535      9536      9537      9532      9535      9536      9538
      9533      9532      9535      9536      9534      9532      9535      9536
      9535      9536      9538      9539      9535      9536      9538      9540
      9535      9536      9538      9588      9536      9538      9588      9589
      9536      9538      9588      9590      9536      9538      9588      9591
      9537      9536      9538      9539      9537      9536      9538      9540
      9537      9536      9538      9588      9538      9588      9591      9592
      9538      9588      9591      9593      9538      9588      9591      9594
      9539      9538      9588      9589      9539      9538      9588      9590
      9539      9538      9588      9591      9540      9538      9588      9589
      9540      9538      9588      9590      9540      9538      9588      9591
      9541      9544      9547      9548      9541      9544      9547      9549
      9542      9541      9544      9545      9542      9541      9544      9546
      9542      9541      9544      9547      9543      9541      9544      9545
      9543      9541      9544      9546      9543      9541      9544      9547
      9544      9547      9549      9550      9544      9547      9549      9551
      9545      9544      9547      9548      9545      9544      9547      9549
      9546      9544      9547      9548      9546      9544      9547      9549
      9547      9549      9551      9552      9547      9549      9551      9553
      9547      9549      9551      9554      9548      9547      9549      9550
      9548      9547      9549      9551      9549      9551      9554      9555
      9549      9551      9554      9556      9550      9549      9551      9552
      9550      9549      9551      9553      9550      9549      9551      9554
      9551      9554      9556      9557      9551      9554      9556      9558
      9552      9551      9554      9555      9552      9551      9554      9556
      9553      9551      9554      9555      9553      9551      9554      9556
      9554      9556      9558      9559      9554      9556      9558      9560
      9554      9556      9558      9561      9555      9554      9556      9557
      9555      9554      9556      9558      9556      9558      9561      9562
      9556      9558      9561      9563      9557      9556      9558      9559
      9557      9556      9558      9560      9557      9556      9558      9561
      9558      9561      9563      9564      9558      9561      9563      9565
      9559      9558      9561      9562      9559      9558      9561      9563
      9560      9558      9561      9562      9560      9558      9561      9563
      9561      9563      9565      9566      9561      9563      9565      9567
      9561      9563      9565      9568      9562      9561      9563      9564
      9562      9561      9563      9565      9563      9565      9568      9569
      9563      9565      9568      9570      9564      9563      9565      9566
      9564      9563      9565      9567      9564      9563      9565      9568
      9565      9568      9570      9571      9565      9568      9570      9572
      9566      9565      9568      9569      9566      9565      9568      9570
      9567      9565      9568      9569      9567      9565      9568      9570
      9568      9570      9572      9573      9568      9570      9572      9574
      9568      9570      9572      9575      9569      9568      9570      9571
      9569      9568      9570      9572      9570      9572      9575      9576
      9570      9572      9575      9577      9570      9572      9575      9578
      9571      9570      9572      9573      9571      9570      9572      9574
      9571      9570      9572      9575      9572      9575      9578      9579
      9572      9575      9578      9580      9572      9575      9578      9581
      9573      9572      9575      9576      9573      9572      9575      9577
      9573      9572      9575      9578      9574      9572      9575      9576
      9574      9572      9575      9577      9574      9572      9575      9578
      9575      9578      9581      9582      9575      9578      9581      9583
      9575      9578      9581      9584      9576      9575      9578      9579
      9576      9575      9578      9580      9576      9575      9578      9581
      9577      9575      9578      9579      9577      9575      9578      9580
      9577      9575      9578      9581      9578      9581      9584      9585
      9578      9581      9584      9586      9578      9581      9584      9587
      9579      9578      9581      9582      9579      9578      9581      9583
      9579      9578      9581      9584      9580      9578      9581      9582
      9580      9578      9581      9583      9580      9578      9581      9584
      9582      9581      9584      9585      9582      9581      9584      9586
      9582      9581      9584      9587      9583      9581      9584      9585
      9583      9581      9584      9586      9583      9581      9584      9587
      9588      9591      9594      9595      9588      9591      9594      9596
      9588      9591      9594      9597      9589      9588      9591      9592
      9589      9588      9591      9593      9589      9588      9591      9594
      9590      9588      9591      9592      9590      9588      9591      9593
      9590      9588      9591      9594      9591      9594      9597      9598
      9591      9594      9597      9599      9591      9594      9597      9600
      9592      9591      9594      9595      9592      9591      9594      9596
      9592      9591      9594      9597      9593      9591      9594      9595
      9593      9591      9594      9596      9593      9591      9594      9597
      9594      9597      9600      9601      9594      9597      9600      9602
      9594      9597      9600      9603      9595      9594      9597      9598
      9595      9594      9597      9599      9595      9594      9597      9600
      9596      9594      9597      9598      9596      9594      9597      9599
      9596      9594      9597      9600      9597      9600      9603      9604
      9597      9600      9603      9605      9597      9600      9603      9606
      9598      9597      9600      9601      9598      9597      9600      9602
      9598      9597      9600      9603      9599      9597      9600      9601
      9599      9597      9600      9602      9599      9597      9600      9603
      9600      9603      9606      9607      9600      9603      9606      9608
      9600      9603      9606      9609      9601      9600      9603      9604
      9601      9600      9603      9605      9601      9600      9603      9606
      9602      9600      9603      9604      9602      9600      9603      9605
      9602      9600      9603      9606      9603      9606      9609      9610
      9603      9606      9609      9611      9603      9606      9609      9612
      9604      9603      9606      9607      9604      9603      9606      9608
      9604      9603      9606      9609      9605      9603      9606      9607
      9605      9603      9606      9608      9605      9603      9606      9609
      9606      9609      9612      9613      9606      9609      9612      9614
      9606      9609      9612      9615      9607      9606      9609      9610
      9607      9606      9609      9611      9607      9606      9609      9612
      9608      9606      9609      9610      9608      9606      9609      9611
      9608      9606      9609      9612      9609      9612      9615      9616
      9609      9612      9615      9617      9609      9612      9615      9618
      9610      9609      9612      9613      9610      9609      9612      9614
      9610      9609      9612      9615      9611      9609      9612      9613
      9611      9609      9612      9614      9611      9609      9612      9615
      9612      9615      9618      9619      9612      9615      9618      9620
      9612      9615      9618      9621      9613      9612      9615      9616
      9613      9612      9615      9617      9613      9612      9615      9618
      9614      9612      9615      9616      9614      9612      9615      9617
      9614      9612      9615      9618      9615      9618      9621      9622
      9615      9618      9621      9623      9615      9618      9621      9624
      9616      9615      9618      9619      9616      9615      9618      9620
      9616      9615      9618      9621      9617      9615      9618      9619
      9617      9615      9618      9620      9617      9615      9618      9621
      9618      9621      9624      9625      9618      9621      9624      9626
      9618      9621      9624      9627      9619      9618      9621      9622
      9619      9618      9621      9623      9619      9618      9621      9624
      9620      9618      9621      9622      9620      9618      9621      9623
      9620      9618      9621      9624      9621      9624      9627      9628
      9621      9624      9627      9629      9621      9624      9627      9630
      9622      9621      9624      9625      9622      9621      9624      9626
      9622      9621      9624      9627      9623      9621      9624      9625
      9623      9621      9624      9626      9623      9621      9624      9627
      9624      9627      9630      9631      9624      9627      9630      9632
      9624      9627      9630      9633      9625      9624      9627      9628
      9625      9624      9627      9629      9625      9624      9627      9630
      9626      9624      9627      9628      9626      9624      9627      9629
      9626      9624      9627      9630      9627      9630      9633      9634
      9627      9630      9633      9635      9627      9630      9633      9636
      9628      9627      9630      9631      9628      9627      9630      9632
      9628      9627      9630      9633      9629      9627      9630      9631
      9629      9627      9630      9632      9629      9627      9630      9633
      9631      9630      9633      9634      9631      9630      9633      9635
      9631      9630      9633      9636      9632      9630      9633      9634
      9632      9630      9633      9635      9632      9630      9633      9636
     13856     13869     13872     13873     13856     13869     13872     13874
     13856     13869     13872     13879     13857     13856     13861     13862
     13857     13856     13861     13863     13857     13856     13861     13864
     13857     13856     13865     13866     13857     13856     13865     13867
     13857     13856     13865     13868     13857     13856     13869     13870
     13857     13856     13869     13871     13857     13856     13869     13872
     13858     13857     13856     13861     13858     13857     13856     13865
     13858     13857     13856     13869     13859     13857     13856     13861
     13859     13857     13856     13865     13859     13857     13856     13869
     13860     13857     13856     13861     13860     13857     13856     13865
     13860     13857     13856     13869     13861     13856     13865     13866
     13861     13856     13865     13867     13861     13856     13865     13868
     13861     13856     13869     13870     13861     13856     13869     13871
     13861     13856     13869     13872     13862     13861     13856     13865
     13862     13861     13856     13869     13863     13861     13856     13865
     13863     13861     13856     13869     13864     13861     13856     13865
     13864     13861     13856     13869     13865     13856     13869     13870
     13865     13856     13869     13871     13865     13856     13869     13872
     13866     13865     13856     13869     13867     13865     13856     13869
     13868     13865     13856     13869     13869     13872     13879     13875
     13870     13869     13872     13873     13870     13869     13872     13874
     13870     13869     13872     13879     13871     13869     13872     13873
     13871     13869     13872     13874     13871     13869     13872     13879
     13872     13879     13875     13876     13872     13879     13875     13877
     13872     13879     13875     13878     13873     13872     13879     13875
     13874     13872     13879     13875     13875     13878     13880     13881
     13875     13878     13880     13882     13875     13878     13880     13885
     13876     13875     13878     13880     13877     13875     13878     13880
     13878     13880     13885     13883     13878     13880     13885     13886
     13878     13880     13885     13887     13879     13875     13878     13880
     13880     13885     13883     13884     13880     13885     13883     13935
     13880     13885     13887     13888     13880     13885     13887     13889
     13880     13885     13887     13891     13881     13880     13885     13883
     13881     13880     13885     13886     13881     13880     13885     13887
     13882     13880     13885     13883     13882     13880     13885     13886
     13882     13880     13885     13887     13883     13885     13887     13888
     13883     13885     13887     13889     13883     13885     13887     13891
     13883     13935     13937     13938     13883     13935     13937     13939
     13883     13935     13937     13940     13884     13883     13885     13886
     13884     13883     13885     13887     13884     13883     13935     13936
     13884     13883     13935     13937     13885     13883     13935     13936
     13885     13883     13935     13937     13885     13887     13889     13890
     13885     13887     13891     13892     13885     13887     13891     13893
     13886     13885     13883     13935     13886     13885     13887     13888
     13886     13885     13887     13889     13886     13885     13887     13891
     13887     13885     13883     13935     13887     13891     13893     13894
     13887     13891     13893     13895     13888     13887     13889     13890
     13888     13887     13891     13892     13888     13887     13891     13893
     13889     13887     13891     13892     13889     13887     13891     13893
     13890     13889     13887     13891     13891     13893     13895     13896
     13891     13893     13895     13897     13891     13893     13895     13898
     13892     13891     13893     13894     13892     13891     13893     13895
     13893     13895     13898     13899     13893     13895     13898     13900
     13893     13895     13898     13901     13894     13893     13895     13896
     13894     13893     13895     13897     13894     13893     13895     13898
     13895     13898     13901     13902     13895     13898     13901     13903
     13895     13898     13901     13904     13896     13895     13898     13899
     13896     13895     13898     13900     13896     13895     13898     13901
     13897     13895     13898     13899     13897     13895     13898     13900
     13897     13895     13898     13901     13898     13901     13904     13905
     13898     13901     13904     13906     13898     13901     13904     13907
     13899     13898     13901     13902     13899     13898     13901     13903
     13899     13898     13901     13904     13900     13898     13901     13902
     13900     13898     13901     13903     13900     13898     13901     13904
     13901     13904     13907     13908     13901     13904     13907     13909
     13901     13904     13907     13910     13902     13901     13904     13905
     13902     13901     13904     13906     13902     13901     13904     13907
     13903     13901     13904     13905     13903     13901     13904     13906
     13903     13901     13904     13907     13904     13907     13910     13911
     13904     13907     13910     13912     13904     13907     13910     13913
     13905     13904     13907     13908     13905     13904     13907     13909
     13905     13904     13907     13910     13906     13904     13907     13908
     13906     13904     13907     13909     13906     13904     13907     13910
     13907     13910     13913     13914     13907     13910     13913     13915
     13907     13910     13913     13916     13908     13907     13910     13911
     13908     13907     13910     13912     13908     13907     13910     13913
     13909     13907     13910     13911     13909     13907     13910     13912
     13909     13907     13910     13913     13910     13913     13916     13917
     13910     13913     13916     13918     13910     13913     13916     13919
     13911     13910     13913     13914     13911     13910     13913     13915
     13911     13910     13913     13916     13912     13910     13913     13914
     13912     13910     13913     13915     13912     13910     13913     13916
     13913     13916     13919     13920     13913     13916     13919     13921
     13913     13916     13919     13922     13914     13913     13916     13917
     13914     13913     13916     13918     13914     13913     13916     13919
     13915     13913     13916     13917     13915     13913     13916     13918
     13915     13913     13916     13919     13916     13919     13922     13923
     13916     13919     13922     13924     13916     13919     13922     13925
     13917     13916     13919     13920     13917     13916     13919     13921
     13917     13916     13919     13922     13918     13916     13919     13920
     13918     13916     13919     13921     13918     13916     13919     13922
     13919     13922     13925     13926     13919     13922     13925     13927
     13919     13922     13925     13928     13920     13919     13922     13923
     13920     13919     13922     13924     13920     13919     13922     13925
     13921     13919     13922     13923     13921     13919     13922     13924
     13921     13919     13922     13925     13922     13925     13928     13929
     13922     13925     13928     13930     13922     13925     13928     13931
     13923     13922     13925     13926     13923     13922     13925     13927
     13923     13922     13925     13928     13924     13922     13925     13926
     13924     13922     13925     13927     13924     13922     13925     13928
     13925     13928     13931     13932     13925     13928     13931     13933
     13925     13928     13931     13934     13926     13925     13928     13929
     13926     13925     13928     13930     13926     13925     13928     13931
     13927     13925     13928     13929     13927     13925     13928     13930
     13927     13925     13928     13931     13929     13928     13931     13932
     13929     13928     13931     13933     13929     13928     13931     13934
     13930     13928     13931     13932     13930     13928     13931     13933
     13930     13928     13931     13934     13935     13937     13940     13941
     13935     13937     13940     13942     13935     13937     13940     13943
     13936     13935     13937     13938     13936     13935     13937     13939
     13936     13935     13937     13940     13937     13940     13943     13944
     13937     13940     13943     13945     13937     13940     13943     13946
     13938     13937     13940     13941     13938     13937     13940     13942
     13938     13937     13940     13943     13939     13937     13940     13941
     13939     13937     13940     13942     13939     13937     13940     13943
     13940     13943     13946     13947     13940     13943     13946     13948
     13940     13943     13946     13949     13941     13940     13943     13944
     13941     13940     13943     13945     13941     13940     13943     13946
     13942     13940     13943     13944     13942     13940     13943     13945
     13942     13940     13943     13946     13943     13946     13949     13950
     13943     13946     13949     13951     13943     13946     13949     13952
     13944     13943     13946     13947     13944     13943     13946     13948
     13944     13943     13946     13949     13945     13943     13946     13947
     13945     13943     13946     13948     13945     13943     13946     13949
     13946     13949     13952     13953     13946     13949     13952     13954
     13946     13949     13952     13955     13947     13946     13949     13950
     13947     13946     13949     13951     13947     13946     13949     13952
     13948     13946     13949     13950     13948     13946     13949     13951
     13948     13946     13949     13952     13949     13952     13955     13956
     13949     13952     13955     13957     13949     13952     13955     13958
     13950     13949     13952     13953     13950     13949     13952     13954
     13950     13949     13952     13955     13951     13949     13952     13953
     13951     13949     13952     13954     13951     13949     13952     13955
     13952     13955     13958     13959     13952     13955     13958     13960
     13953     13952     13955     13956     13953     13952     13955     13957
     13953     13952     13955     13958     13954     13952     13955     13956
     13954     13952     13955     13957     13954     13952     13955     13958
     13955     13958     13960     13961     13955     13958     13960     13962
     13956     13955     13958     13959     13956     13955     13958     13960
     13957     13955     13958     13959     13957     13955     13958     13960
     13958     13960     13962     13963     13958     13960     13962     13964
     13958     13960     13962     13965     13959     13958     13960     13961
     13959     13958     13960     13962     13960     13962     13965     13966
     13960     13962     13965     13967     13960     13962     13965     13968
     13961     13960     13962     13963     13961     13960     13962     13964
     13961     13960     13962     13965     13962     13965     13968     13969
     13962     13965     13968     13970     13962     13965     13968     13971
     13963     13962     13965     13966     13963     13962     13965     13967
     13963     13962     13965     13968     13964     13962     13965     13966
     13964     13962     13965     13967     13964     13962     13965     13968
     13965     13968     13971     13972     13965     13968     13971     13973
     13965     13968     13971     13974     13966     13965     13968     13969
     13966     13965     13968     13970     13966     13965     13968     13971
     13967     13965     13968     13969     13967     13965     13968     13970
     13967     13965     13968     13971     13968     13971     13974     13975
     13968     13971     13974     13976     13968     13971     13974     13977
     13969     13968     13971     13972     13969     13968     13971     13973
     13969     13968     13971     13974     13970     13968     13971     13972
     13970     13968     13971     13973     13970     13968     13971     13974
     13971     13974     13977     13978     13971     13974     13977     13979
     13971     13974     13977     13980     13972     13971     13974     13975
     13972     13971     13974     13976     13972     13971     13974     13977
     13973     13971     13974     13975     13973     13971     13974     13976
     13973     13971     13974     13977     13974     13977     13980     13981
     13974     13977     13980     13982     13974     13977     13980     13983
     13975     13974     13977     13978     13975     13974     13977     13979
     13975     13974     13977     13980     13976     13974     13977     13978
     13976     13974     13977     13979     13976     13974     13977     13980
     13977     13980     13983     13984     13977     13980     13983     13985
     13977     13980     13983     13986     13978     13977     13980     13981
     13978     13977     13980     13982     13978     13977     13980     13983
     13979     13977     13980     13981     13979     13977     13980     13982
     13979     13977     13980     13983     13981     13980     13983     13984
     13981     13980     13983     13985     13981     13980     13983     13986
     13982     13980     13983     13984     13982     13980     13983     13985
     13982     13980     13983     13986      5177      5181      5184      5185
      5177      5181      5184      5215      5177      5223      5220      5215
      5177      5223      5220      5221      5177      5223      5220      5222
      5178      5177      5179      5180      5178      5177      5181      5182
      5178      5177      5181      5183      5178      5177      5181      5184
      5178      5177      5223      5220      5178      5177      5223      5224
      5178      5177      5223      5225      5179      5177      5181      5182
      5179      5177      5181      5183      5179      5177      5181      5184
      5179      5177      5223      5220      5179      5177      5223      5224
      5179      5177      5223      5225      5180      5179      5177      5181
      5180      5179      5177      5223      5181      5177      5223      5220
      5181      5177      5223      5224      5181      5177      5223      5225
      5181      5184      5185      5186      5181      5184      5185      5187
      5181      5184      5215      5213      5181      5184      5215      5216
      5181      5184      5215      5220      5182      5181      5177      5223
      5182      5181      5184      5185      5182      5181      5184      5215
      5183      5181      5177      5223      5183      5181      5184      5185
      5183      5181      5184      5215      5184      5181      5177      5223
      5184      5185      5187      5188      5184      5185      5187      5189
      5184      5185      5187      5190      5184      5215      5213      5190
      5184      5215      5213      5210      5184      5215      5213      5214
      5184      5215      5216      5217      5184      5215      5216      5218
      5184      5215      5216      5219      5184      5215      5220      5221
      5184      5215      5220      5222      5184      5215      5220      5223
      5185      5184      5215      5213      5185      5184      5215      5216
      5185      5184      5215      5220      5185      5187      5190      5191
      5185      5187      5190      5192      5185      5187      5190      5213
      5186      5185      5184      5215      5186      5185      5187      5188
      5186      5185      5187      5189      5186      5185      5187      5190
      5187      5185      5184      5215      5187      5190      5192      5193
      5187      5190      5192      5194      5187      5190      5192      5202
      5187      5190      5213      5210      5187      5190      5213      5214
      5187      5190      5213      5215      5188      5187      5190      5191
      5188      5187      5190      5192      5188      5187      5190      5213
      5189      5187      5190      5191      5189      5187      5190      5192
      5189      5187      5190      5213      5190      5192      5194      5195
      5190      5192      5194      5196      5190      5192      5194      5197
      5190      5192      5202      5200      5190      5192      5202      5203
      5190      5192      5202      5207      5190      5213      5210      5207
      5190      5213      5210      5211      5190      5213      5210      5212
      5190      5213      5215      5216      5190      5213      5215      5220
      5191      5190      5192      5193      5191      5190      5192      5194
      5191      5190      5192      5202      5191      5190      5213      5210
      5191      5190      5213      5214      5191      5190      5213      5215
      5192      5190      5213      5210      5192      5190      5213      5214
      5192      5190      5213      5215      5192      5194      5197      5198
      5192      5194      5197      5199      5192      5194      5197      5200
      5192      5202      5200      5197      5192      5202      5200      5201
      5192      5202      5200      5226      5192      5202      5203      5204
      5192      5202      5203      5205      5192      5202      5203      5206
      5192      5202      5207      5208      5192      5202      5207      5209
      5192      5202      5207      5210      5193      5192      5190      5213
      5193      5192      5194      5195      5193      5192      5194      5196
      5193      5192      5194      5197      5193      5192      5202      5200
      5193      5192      5202      5203      5193      5192      5202      5207
      5194      5192      5190      5213      5194      5192      5202      5200
      5194      5192      5202      5203      5194      5192      5202      5207
      5194      5197      5200      5201      5194      5197      5200      5202
      5194      5197      5200      5226      5195      5194      5192      5202
      5195      5194      5197      5198      5195      5194      5197      5199
      5195      5194      5197      5200      5196      5194      5192      5202
      5196      5194      5197      5198      5196      5194      5197      5199
      5196      5194      5197      5200      5197      5194      5192      5202
      5197      5200      5202      5203      5197      5200      5202      5207
      5197      5200      5226      5227      5197      5200      5226      5228
      5197      5200      5226      5232      5198      5197      5200      5201
      5198      5197      5200      5202      5198      5197      5200      5226
      5199      5197      5200      5201      5199      5197      5200      5202
      5199      5197      5200      5226      5200      5202      5203      5204
      5200      5202      5203      5205      5200      5202      5203      5206
      5200      5202      5207      5208      5200      5202      5207      5209
      5200      5202      5207      5210      5200      5226      5228      5229
      5200      5226      5228      5230      5200      5226      5228      5231
      5200      5226      5232      5233      5200      5226      5232      5234
      5200      5226      5232      5235      5201      5200      5202      5203
      5201      5200      5202      5207      5201      5200      5226      5227
      5201      5200      5226      5228      5201      5200      5226      5232
      5202      5192      5190      5213      5202      5200      5226      5227
      5202      5200      5226      5228      5202      5200      5226      5232
      5202      5207      5210      5211      5202      5207      5210      5212
      5202      5207      5210      5213      5203      5202      5200      5226
      5203      5202      5207      5208      5203      5202      5207      5209
      5203      5202      5207      5210      5204      5203      5202      5207
      5205      5203      5202      5207      5206      5203      5202      5207
      5207      5202      5200      5226      5207      5210      5213      5214
      5207      5210      5213      5215      5208      5207      5210      5211
      5208      5207      5210      5212      5208      5207      5210      5213
      5209      5207      5210      5211      5209      5207      5210      5212
      5209      5207      5210      5213      5210      5213      5215      5216
      5210      5213      5215      5220      5211      5210      5213      5214
      5211      5210      5213      5215      5212      5210      5213      5214
      5212      5210      5213      5215      5213      5215      5216      5217
      5213      5215      5216      5218      5213      5215      5216      5219
      5213      5215      5220      5221      5213      5215      5220      5222
      5213      5215      5220      5223      5214      5213      5215      5216
      5214      5213      5215      5220      5215      5220      5223      5224
      5215      5220      5223      5225      5216      5215      5220      5221
      5216      5215      5220      5222      5216      5215      5220      5223
      5217      5216      5215      5220      5218      5216      5215      5220
      5219      5216      5215      5220      5221      5220      5223      5224
      5221      5220      5223      5225      5222      5220      5223      5224
      5222      5220      5223      5225      5226      5232      5235      5236
      5226      5232      5235      5237      5226      5232      5235      5238
      5227      5226      5228      5229      5227      5226      5228      5230
      5227      5226      5228      5231      5227      5226      5232      5233
      5227      5226      5232      5234      5227      5226      5232      5235
      5228      5226      5232      5233      5228      5226      5232      5234
      5228      5226      5232      5235      5229      5228      5226      5232
      5230      5228      5226      5232      5231      5228      5226      5232
      5232      5235      5238      5239      5232      5235      5238      5240
      5232      5235      5238      5241      5233      5232      5235      5236
      5233      5232      5235      5237      5233      5232      5235      5238
      5234      5232      5235      5236      5234      5232      5235      5237
      5234      5232      5235      5238      5235      5238      5241      5242
      5235      5238      5241      5243      5235      5238      5241      5247
      5236      5235      5238      5239      5236      5235      5238      5240
      5236      5235      5238      5241      5237      5235      5238      5239
      5237      5235      5238      5240      5237      5235      5238      5241
      5238      5241      5243      5244      5238      5241      5243      5245
      5238      5241      5243      5246      5238      5241      5247      5248
      5238      5241      5247      5249      5238      5241      5247      5250
      5239      5238      5241      5242      5239      5238      5241      5243
      5239      5238      5241      5247      5240      5238      5241      5242
      5240      5238      5241      5243      5240      5238      5241      5247
      5242      5241      5243      5244      5242      5241      5243      5245
      5242      5241      5243      5246      5242      5241      5247      5248
      5242      5241      5247      5249      5242      5241      5247      5250
      5243      5241      5247      5248      5243      5241      5247      5249
      5243      5241      5247      5250      5244      5243      5241      5247
      5245      5243      5241      5247      5246      5243      5241      5247
      1863      1867      1869      1870      1863      1867      1869      1871
      1863      1867      1872      1873      1863      1867      1872      1874
      1863      1867      1872      1878      1864      1863      1867      1868
      1864      1863      1867      1869      1864      1863      1867      1872
      1865      1863      1867      1868      1865      1863      1867      1869
      1865      1863      1867      1872      1866      1863      1867      1868
      1866      1863      1867      1869      1866      1863      1867      1872
      1867      1872      1878      1875      1868      1867      1869      1870
      1868      1867      1869      1871      1868      1867      1872      1873
      1868      1867      1872      1874      1868      1867      1872      1878
      1869      1867      1872      1873      1869      1867      1872      1874
      1869      1867      1872      1878      1870      1869      1867      1872
      1871      1869      1867      1872      1872      1878      1875      1876
      1872      1878      1875      1877      1872      1878      1875      1879
      1873      1872      1878      1875      1874      1872      1878      1875
      1875      1879      1880      1881      1875      1879      1880      1882
      1875      1879      1880      1883      1876      1875      1879      1880
      1877      1875      1879      1880      1878      1875      1879      1880
      1879      1880      1883      1884      1879      1880      1883      1885
      1879      1880      1883      1891      1880      1883      1885      1886
      1880      1883      1891      1892      1880      1883      1891      1893
      1880      1883      1891      1894      1881      1880      1883      1884
      1881      1880      1883      1885      1881      1880      1883      1891
      1882      1880      1883      1884      1882      1880      1883      1885
      1882      1880      1883      1891      1883      1885      1886      1887
      1883      1885      1886      1888      1883      1891      1894      1895
      1884      1883      1885      1886      1884      1883      1891      1892
      1884      1883      1891      1893      1884      1883      1891      1894
      1885      1883      1891      1892      1885      1883      1891      1893
      1885      1883      1891      1894      1885      1886      1888      1889
      1885      1886      1888      1890      1885      1886      1888      1900
      1886      1885      1883      1891      1886      1888      1900      1901
      1886      1888      1900      1902      1886      1888      1900      1903
      1887      1886      1888      1889      1887      1886      1888      1890
      1887      1886      1888      1900      1888      1900      1903      1904
      1888      1900      1903      1905      1888      1900      1903      1906
      1889      1888      1900      1901      1889      1888      1900      1902
      1889      1888      1900      1903      1890      1888      1900      1901
      1890      1888      1900      1902      1890      1888      1900      1903
      1891      1894      1895      1896      1891      1894      1895      1897
      1892      1891      1894      1895      1893      1891      1894      1895
      1894      1895      1897      1898      1894      1895      1897      1899
      1894      1895      1897      1947      1895      1897      1947      1948
      1895      1897      1947      1949      1895      1897      1947      1950
      1896      1895      1897      1898      1896      1895      1897      1899
      1896      1895      1897      1947      1897      1947      1950      1951
      1897      1947      1950      1952      1897      1947      1950      1953
      1898      1897      1947      1948      1898      1897      1947      1949
      1898      1897      1947      1950      1899      1897      1947      1948
      1899      1897      1947      1949      1899      1897      1947      1950
      1900      1903      1906      1907      1900      1903      1906      1908
      1901      1900      1903      1904      1901      1900      1903      1905
      1901      1900      1903      1906      1902      1900      1903      1904
      1902      1900      1903      1905      1902      1900      1903      1906
      1903      1906      1908      1909      1903      1906      1908      1910
      1904      1903      1906      1907      1904      1903      1906      1908
      1905      1903      1906      1907      1905      1903      1906      1908
      1906      1908      1910      1911      1906      1908      1910      1912
      1906      1908      1910      1913      1907      1906      1908      1909
      1907      1906      1908      1910      1908      1910      1913      1914
      1908      1910      1913      1915      1909      1908      1910      1911
      1909      1908      1910      1912      1909      1908      1910      1913
      1910      1913      1915      1916      1910      1913      1915      1917
      1911      1910      1913      1914      1911      1910      1913      1915
      1912      1910      1913      1914      1912      1910      1913      1915
      1913      1915      1917      1918      1913      1915      1917      1919
      1913      1915      1917      1920      1914      1913      1915      1916
      1914      1913      1915      1917      1915      1917      1920      1921
      1915      1917      1920      1922      1916      1915      1917      1918
      1916      1915      1917      1919      1916      1915      1917      1920
      1917      1920      1922      1923      1917      1920      1922      1924
      1918      1917      1920      1921      1918      1917      1920      1922
      1919      1917      1920      1921      1919      1917      1920      1922
      1920      1922      1924      1925      1920      1922      1924      1926
      1920      1922      1924      1927      1921      1920      1922      1923
      1921      1920      1922      1924      1922      1924      1927      1928
      1922      1924      1927      1929      1923      1922      1924      1925
      1923      1922      1924      1926      1923      1922      1924      1927
      1924      1927      1929      1930      1924      1927      1929      1931
      1925      1924      1927      1928      1925      1924      1927      1929
      1926      1924      1927      1928      1926      1924      1927      1929
      1927      1929      1931      1932      1927      1929      1931      1933
      1927      1929      1931      1934      1928      1927      1929      1930
      1928      1927      1929      1931      1929      1931      1934      1935
      1929      1931      1934      1936      1929      1931      1934      1937
      1930      1929      1931      1932      1930      1929      1931      1933
      1930      1929      1931      1934      1931      1934      1937      1938
      1931      1934      1937      1939      1931      1934      1937      1940
      1932      1931      1934      1935      1932      1931      1934      1936
      1932      1931      1934      1937      1933      1931      1934      1935
      1933      1931      1934      1936      1933      1931      1934      1937
      1934      1937      1940      1941      1934      1937      1940      1942
      1934      1937      1940      1943      1935      1934      1937      1938
      1935      1934      1937      1939      1935      1934      1937      1940
      1936      1934      1937      1938      1936      1934      1937      1939
      1936      1934      1937      1940      1937      1940      1943      1944
      1937      1940      1943      1945      1937      1940      1943      1946
      1938      1937      1940      1941      1938      1937      1940      1942
      1938      1937      1940      1943      1939      1937      1940      1941
      1939      1937      1940      1942      1939      1937      1940      1943
      1941      1940      1943      1944      1941      1940      1943      1945
      1941      1940      1943      1946      1942      1940      1943      1944
      1942      1940      1943      1945      1942      1940      1943      1946
      1947      1950      1953      1954      1947      1950      1953      1955
      1947      1950      1953      1956      1948      1947      1950      1951
      1948      1947      1950      1952      1948      1947      1950      1953
      1949      1947      1950      1951      1949      1947      1950      1952
      1949      1947      1950      1953      1950      1953      1956      1957
      1950      1953      1956      1958      1950      1953      1956      1959
      1951      1950      1953      1954      1951      1950      1953      1955
      1951      1950      1953      1956      1952      1950      1953      1954
      1952      1950      1953      1955      1952      1950      1953      1956
      1953      1956      1959      1960      1953      1956      1959      1961
      1953      1956      1959      1962      1954      1953      1956      1957
      1954      1953      1956      1958      1954      1953      1956      1959
      1955      1953      1956      1957      1955      1953      1956      1958
      1955      1953      1956      1959      1956      1959      1962      1963
      1956      1959      1962      1964      1956      1959      1962      1965
      1957      1956      1959      1960      1957      1956      1959      1961
      1957      1956      1959      1962      1958      1956      1959      1960
      1958      1956      1959      1961      1958      1956      1959      1962
      1959      1962      1965      1966      1959      1962      1965      1967
      1959      1962      1965      1968      1960      1959      1962      1963
      1960      1959      1962      1964      1960      1959      1962      1965
      1961      1959      1962      1963      1961      1959      1962      1964
      1961      1959      1962      1965      1962      1965      1968      1969
      1962      1965      1968      1970      1962      1965      1968      1971
      1963      1962      1965      1966      1963      1962      1965      1967
      1963      1962      1965      1968      1964      1962      1965      1966
      1964      1962      1965      1967      1964      1962      1965      1968
      1965      1968      1971      1972      1965      1968      1971      1973
      1965      1968      1971      1974      1966      1965      1968      1969
      1966      1965      1968      1970      1966      1965      1968      1971
      1967      1965      1968      1969      1967      1965      1968      1970
      1967      1965      1968      1971      1968      1971      1974      1975
      1968      1971      1974      1976      1968      1971      1974      1977
      1969      1968      1971      1972      1969      1968      1971      1973
      1969      1968      1971      1974      1970      1968      1971      1972
      1970      1968      1971      1973      1970      1968      1971      1974
      1971      1974      1977      1978      1971      1974      1977      1979
      1971      1974      1977      1980      1972      1971      1974      1975
      1972      1971      1974      1976      1972      1971      1974      1977
      1973      1971      1974      1975      1973      1971      1974      1976
      1973      1971      1974      1977      1974      1977      1980      1981
      1974      1977      1980      1982      1974      1977      1980      1983
      1975      1974      1977      1978      1975      1974      1977      1979
      1975      1974      1977      1980      1976      1974      1977      1978
      1976      1974      1977      1979      1976      1974      1977      1980
      1977      1980      1983      1984      1977      1980      1983      1985
      1977      1980      1983      1986      1978      1977      1980      1981
      1978      1977      1980      1982      1978      1977      1980      1983
      1979      1977      1980      1981      1979      1977      1980      1982
      1979      1977      1980      1983      1980      1983      1986      1987
      1980      1983      1986      1988      1980      1983      1986      1989
      1981      1980      1983      1984      1981      1980      1983      1985
      1981      1980      1983      1986      1982      1980      1983      1984
      1982      1980      1983      1985      1982      1980      1983      1986
      1983      1986      1989      1990      1983      1986      1989      1991
      1983      1986      1989      1992      1984      1983      1986      1987
      1984      1983      1986      1988      1984      1983      1986      1989
      1985      1983      1986      1987      1985      1983      1986      1988
      1985      1983      1986      1989      1986      1989      1992      1993
      1986      1989      1992      1994      1986      1989      1992      1995
      1987      1986      1989      1990      1987      1986      1989      1991
      1987      1986      1989      1992      1988      1986      1989      1990
      1988      1986      1989      1991      1988      1986      1989      1992
      1990      1989      1992      1993      1990      1989      1992      1994
      1990      1989      1992      1995      1991      1989      1992      1993
      1991      1989      1992      1994      1991      1989      1992      1995
      5251      5255      5258      5259      5251      5255      5258      5289
      5251      5297      5294      5289      5251      5297      5294      5295
      5251      5297      5294      5296      5252      5251      5253      5254
      5252      5251      5255      5256      5252      5251      5255      5257
      5252      5251      5255      5258      5252      5251      5297      5294
      5252      5251      5297      5298      5252      5251      5297      5299
      5253      5251      5255      5256      5253      5251      5255      5257
      5253      5251      5255      5258      5253      5251      5297      5294
      5253      5251      5297      5298      5253      5251      5297      5299
      5254      5253      5251      5255      5254      5253      5251      5297
      5255      5251      5297      5294      5255      5251      5297      5298
      5255      5251      5297      5299      5255      5258      5259      5260
      5255      5258      5259      5261      5255      5258      5289      5287
      5255      5258      5289      5290      5255      5258      5289      5294
      5256      5255      5251      5297      5256      5255      5258      5259
      5256      5255      5258      5289      5257      5255      5251      5297
      5257      5255      5258      5259      5257      5255      5258      5289
      5258      5255      5251      5297      5258      5259      5261      5262
      5258      5259      5261      5263      5258      5259      5261      5264
      5258      5289      5287      5264      5258      5289      5287      5284
      5258      5289      5287      5288      5258      5289      5290      5291
      5258      5289      5290      5292      5258      5289      5290      5293
      5258      5289      5294      5295      5258      5289      5294      5296
      5258      5289      5294      5297      5259      5258      5289      5287
      5259      5258      5289      5290      5259      5258      5289      5294
      5259      5261      5264      5265      5259      5261      5264      5266
      5259      5261      5264      5287      5260      5259      5258      5289
      5260      5259      5261      5262      5260      5259      5261      5263
      5260      5259      5261      5264      5261      5259      5258      5289
      5261      5264      5266      5267      5261      5264      5266      5268
      5261      5264      5266      5276      5261      5264      5287      5284
      5261      5264      5287      5288      5261      5264      5287      5289
      5262      5261      5264      5265      5262      5261      5264      5266
      5262      5261      5264      5287      5263      5261      5264      5265
      5263      5261      5264      5266      5263      5261      5264      5287
      5264      5266      5268      5269      5264      5266      5268      5270
      5264      5266      5268      5271      5264      5266      5276      5274
      5264      5266      5276      5277      5264      5266      5276      5281
      5264      5287      5284      5281      5264      5287      5284      5285
      5264      5287      5284      5286      5264      5287      5289      5290
      5264      5287      5289      5294      5265      5264      5266      5267
      5265      5264      5266      5268      5265      5264      5266      5276
      5265      5264      5287      5284      5265      5264      5287      5288
      5265      5264      5287      5289      5266      5264      5287      5284
      5266      5264      5287      5288      5266      5264      5287      5289
      5266      5268      5271      5272      5266      5268      5271      5273
      5266      5268      5271      5274      5266      5276      5274      5271
      5266      5276      5274      5275      5266      5276      5274      5300
      5266      5276      5277      5278      5266      5276      5277      5279
      5266      5276      5277      5280      5266      5276      5281      5282
      5266      5276      5281      5283      5266      5276      5281      5284
      5267      5266      5264      5287      5267      5266      5268      5269
      5267      5266      5268      5270      5267      5266      5268      5271
      5267      5266      5276      5274      5267      5266      5276      5277
      5267      5266      5276      5281      5268      5266      5264      5287
      5268      5266      5276      5274      5268      5266      5276      5277
      5268      5266      5276      5281      5268      5271      5274      5275
      5268      5271      5274      5276      5268      5271      5274      5300
      5269      5268      5266      5276      5269      5268      5271      5272
      5269      5268      5271      5273      5269      5268      5271      5274
      5270      5268      5266      5276      5270      5268      5271      5272
      5270      5268      5271      5273      5270      5268      5271      5274
      5271      5268      5266      5276      5271      5274      5276      5277
      5271      5274      5276      5281      5271      5274      5300      5301
      5271      5274      5300      5302      5271      5274      5300      5306
      5272      5271      5274      5275      5272      5271      5274      5276
      5272      5271      5274      5300      5273      5271      5274      5275
      5273      5271      5274      5276      5273      5271      5274      5300
      5274      5276      5277      5278      5274      5276      5277      5279
      5274      5276      5277      5280      5274      5276      5281      5282
      5274      5276      5281      5283      5274      5276      5281      5284
      5274      5300      5302      5303      5274      5300      5302      5304
      5274      5300      5302      5305      5274      5300      5306      5307
      5274      5300      5306      5308      5274      5300      5306      5309
      5275      5274      5276      5277      5275      5274      5276      5281
      5275      5274      5300      5301      5275      5274      5300      5302
      5275      5274      5300      5306      5276      5266      5264      5287
      5276      5274      5300      5301      5276      5274      5300      5302
      5276      5274      5300      5306      5276      5281      5284      5285
      5276      5281      5284      5286      5276      5281      5284      5287
      5277      5276      5274      5300      5277      5276      5281      5282
      5277      5276      5281      5283      5277      5276      5281      5284
      5278      5277      5276      5281      5279      5277      5276      5281
      5280      5277      5276      5281      5281      5276      5274      5300
      5281      5284      5287      5288      5281      5284      5287      5289
      5282      5281      5284      5285      5282      5281      5284      5286
      5282      5281      5284      5287      5283      5281      5284      5285
      5283      5281      5284      5286      5283      5281      5284      5287
      5284      5287      5289      5290      5284      5287      5289      5294
      5285      5284      5287      5288      5285      5284      5287      5289
      5286      5284      5287      5288      5286      5284      5287      5289
      5287      5289      5290      5291      5287      5289      5290      5292
      5287      5289      5290      5293      5287      5289      5294      5295
      5287      5289      5294      5296      5287      5289      5294      5297
      5288      5287      5289      5290      5288      5287      5289      5294
      5289      5294      5297      5298      5289      5294      5297      5299
      5290      5289      5294      5295      5290      5289      5294      5296
      5290      5289      5294      5297      5291      5290      5289      5294
      5292      5290      5289      5294      5293      5290      5289      5294
      5295      5294      5297      5298      5295      5294      5297      5299
      5296      5294      5297      5298      5296      5294      5297      5299
      5300      5306      5309      5310      5300      5306      5309      5311
      5300      5306      5309      5312      5301      5300      5302      5303
      5301      5300      5302      5304      5301      5300      5302      5305
      5301      5300      5306      5307      5301      5300      5306      5308
      5301      5300      5306      5309      5302      5300      5306      5307
      5302      5300      5306      5308      5302      5300      5306      5309
      5303      5302      5300      5306      5304      5302      5300      5306
      5305      5302      5300      5306      5306      5309      5312      5313
      5306      5309      5312      5314      5306      5309      5312      5315
      5307      5306      5309      5310      5307      5306      5309      5311
      5307      5306      5309      5312      5308      5306      5309      5310
      5308      5306      5309      5311      5308      5306      5309      5312
      5309      5312      5315      5316      5309      5312      5315      5317
      5309      5312      5315      5321      5310      5309      5312      5313
      5310      5309      5312      5314      5310      5309      5312      5315
      5311      5309      5312      5313      5311      5309      5312      5314
      5311      5309      5312      5315      5312      5315      5317      5318
      5312      5315      5317      5319      5312      5315      5317      5320
      5312      5315      5321      5322      5312      5315      5321      5323
      5312      5315      5321      5324      5313      5312      5315      5316
      5313      5312      5315      5317      5313      5312      5315      5321
      5314      5312      5315      5316      5314      5312      5315      5317
      5314      5312      5315      5321      5316      5315      5317      5318
      5316      5315      5317      5319      5316      5315      5317      5320
      5316      5315      5321      5322      5316      5315      5321      5323
      5316      5315      5321      5324      5317      5315      5321      5322
      5317      5315      5321      5323      5317      5315      5321      5324
      5318      5317      5315      5321      5319      5317      5315      5321
      5320      5317      5315      5321      1996      2000      2002      2003
      1996      2000      2002      2004      1996      2000      2005      2006
      1996      2000      2005      2007      1996      2000      2005      2011
      1997      1996      2000      2001      1997      1996      2000      2002
      1997      1996      2000      2005      1998      1996      2000      2001
      1998      1996      2000      2002      1998      1996      2000      2005
      1999      1996      2000      2001      1999      1996      2000      2002
      1999      1996      2000      2005      2000      2005      2011      2008
      2001      2000      2002      2003      2001      2000      2002      2004
      2001      2000      2005      2006      2001      2000      2005      2007
      2001      2000      2005      2011      2002      2000      2005      2006
      2002      2000      2005      2007      2002      2000      2005      2011
      2003      2002      2000      2005      2004      2002      2000      2005
      2005      2011      2008      2009      2005      2011      2008      2010
      2005      2011      2008      2012      2006      2005      2011      2008
      2007      2005      2011      2008      2008      2012      2013      2014
      2008      2012      2013      2015      2008      2012      2013      2016
      2009      2008      2012      2013      2010      2008      2012      2013
      2011      2008      2012      2013      2012      2013      2016      2017
      2012      2013      2016      2018      2012      2013      2016      2024
      2013      2016      2018      2019      2013      2016      2024      2025
      2013      2016      2024      2026      2013      2016      2024      2027
      2014      2013      2016      2017      2014      2013      2016      2018
      2014      2013      2016      2024      2015      2013      2016      2017
      2015      2013      2016      2018      2015      2013      2016      2024
      2016      2018      2019      2020      2016      2018      2019      2021
      2016      2024      2027      2028      2017      2016      2018      2019
      2017      2016      2024      2025      2017      2016      2024      2026
      2017      2016      2024      2027      2018      2016      2024      2025
      2018      2016      2024      2026      2018      2016      2024      2027
      2018      2019      2021      2022      2018      2019      2021      2023
      2018      2019      2021      2033      2019      2018      2016      2024
      2019      2021      2033      2034      2019      2021      2033      2035
      2019      2021      2033      2036      2020      2019      2021      2022
      2020      2019      2021      2023      2020      2019      2021      2033
      2021      2033      2036      2037      2021      2033      2036      2038
      2021      2033      2036      2039      2022      2021      2033      2034
      2022      2021      2033      2035      2022      2021      2033      2036
      2023      2021      2033      2034      2023      2021      2033      2035
      2023      2021      2033      2036      2024      2027      2028      2029
      2024      2027      2028      2030      2025      2024      2027      2028
      2026      2024      2027      2028      2027      2028      2030      2031
      2027      2028      2030      2032      2027      2028      2030      2080
      2028      2030      2080      2081      2028      2030      2080      2082
      2028      2030      2080      2083      2029      2028      2030      2031
      2029      2028      2030      2032      2029      2028      2030      2080
      2030      2080      2083      2084      2030      2080      2083      2085
      2030      2080      2083      2086      2031      2030      2080      2081
      2031      2030      2080      2082      2031      2030      2080      2083
      2032      2030      2080      2081      2032      2030      2080      2082
      2032      2030      2080      2083      2033      2036      2039      2040
      2033      2036      2039      2041      2034      2033      2036      2037
      2034      2033      2036      2038      2034      2033      2036      2039
      2035      2033      2036      2037      2035      2033      2036      2038
      2035      2033      2036      2039      2036      2039      2041      2042
      2036      2039      2041      2043      2037      2036      2039      2040
      2037      2036      2039      2041      2038      2036      2039      2040
      2038      2036      2039      2041      2039      2041      2043      2044
      2039      2041      2043      2045      2039      2041      2043      2046
      2040      2039      2041      2042      2040      2039      2041      2043
      2041      2043      2046      2047      2041      2043      2046      2048
      2042      2041      2043      2044      2042      2041      2043      2045
      2042      2041      2043      2046      2043      2046      2048      2049
      2043      2046      2048      2050      2044      2043      2046      2047
      2044      2043      2046      2048      2045      2043      2046      2047
      2045      2043      2046      2048      2046      2048      2050      2051
      2046      2048      2050      2052      2046      2048      2050      2053
      2047      2046      2048      2049      2047      2046      2048      2050
      2048      2050      2053      2054      2048      2050      2053      2055
      2049      2048      2050      2051      2049      2048      2050      2052
      2049      2048      2050      2053      2050      2053      2055      2056
      2050      2053      2055      2057      2051      2050      2053      2054
      2051      2050      2053      2055      2052      2050      2053      2054
      2052      2050      2053      2055      2053      2055      2057      2058
      2053      2055      2057      2059      2053      2055      2057      2060
      2054      2053      2055      2056      2054      2053      2055      2057
      2055      2057      2060      2061      2055      2057      2060      2062
      2056      2055      2057      2058      2056      2055      2057      2059
      2056      2055      2057      2060      2057      2060      2062      2063
      2057      2060      2062      2064      2058      2057      2060      2061
      2058      2057      2060      2062      2059      2057      2060      2061
      2059      2057      2060      2062      2060      2062      2064      2065
      2060      2062      2064      2066      2060      2062      2064      2067
      2061      2060      2062      2063      2061      2060      2062      2064
      2062      2064      2067      2068      2062      2064      2067      2069
      2062      2064      2067      2070      2063      2062      2064      2065
      2063      2062      2064      2066      2063      2062      2064      2067
      2064      2067      2070      2071      2064      2067      2070      2072
      2064      2067      2070      2073      2065      2064      2067      2068
      2065      2064      2067      2069      2065      2064      2067      2070
      2066      2064      2067      2068      2066      2064      2067      2069
      2066      2064      2067      2070      2067      2070      2073      2074
      2067      2070      2073      2075      2067      2070      2073      2076
      2068      2067      2070      2071      2068      2067      2070      2072
      2068      2067      2070      2073      2069      2067      2070      2071
      2069      2067      2070      2072      2069      2067      2070      2073
      2070      2073      2076      2077      2070      2073      2076      2078
      2070      2073      2076      2079      2071      2070      2073      2074
      2071      2070      2073      2075      2071      2070      2073      2076
      2072      2070      2073      2074      2072      2070      2073      2075
      2072      2070      2073      2076      2074      2073      2076      2077
      2074      2073      2076      2078      2074      2073      2076      2079
      2075      2073      2076      2077      2075      2073      2076      2078
      2075      2073      2076      2079      2080      2083      2086      2087
      2080      2083      2086      2088      2080      2083      2086      2089
      2081      2080      2083      2084      2081      2080      2083      2085
      2081      2080      2083      2086      2082      2080      2083      2084
      2082      2080      2083      2085      2082      2080      2083      2086
      2083      2086      2089      2090      2083      2086      2089      2091
      2083      2086      2089      2092      2084      2083      2086      2087
      2084      2083      2086      2088      2084      2083      2086      2089
      2085      2083      2086      2087      2085      2083      2086      2088
      2085      2083      2086      2089      2086      2089      2092      2093
      2086      2089      2092      2094      2086      2089      2092      2095
      2087      2086      2089      2090      2087      2086      2089      2091
      2087      2086      2089      2092      2088      2086      2089      2090
      2088      2086      2089      2091      2088      2086      2089      2092
      2089      2092      2095      2096      2089      2092      2095      2097
      2089      2092      2095      2098      2090      2089      2092      2093
      2090      2089      2092      2094      2090      2089      2092      2095
      2091      2089      2092      2093      2091      2089      2092      2094
      2091      2089      2092      2095      2092      2095      2098      2099
      2092      2095      2098      2100      2092      2095      2098      2101
      2093      2092      2095      2096      2093      2092      2095      2097
      2093      2092      2095      2098      2094      2092      2095      2096
      2094      2092      2095      2097      2094      2092      2095      2098
      2095      2098      2101      2102      2095      2098      2101      2103
      2095      2098      2101      2104      2096      2095      2098      2099
      2096      2095      2098      2100      2096      2095      2098      2101
      2097      2095      2098      2099      2097      2095      2098      2100
      2097      2095      2098      2101      2098      2101      2104      2105
      2098      2101      2104      2106      2098      2101      2104      2107
      2099      2098      2101      2102      2099      2098      2101      2103
      2099      2098      2101      2104      2100      2098      2101      2102
      2100      2098      2101      2103      2100      2098      2101      2104
      2101      2104      2107      2108      2101      2104      2107      2109
      2101      2104      2107      2110      2102      2101      2104      2105
      2102      2101      2104      2106      2102      2101      2104      2107
      2103      2101      2104      2105      2103      2101      2104      2106
      2103      2101      2104      2107      2104      2107      2110      2111
      2104      2107      2110      2112      2104      2107      2110      2113
      2105      2104      2107      2108      2105      2104      2107      2109
      2105      2104      2107      2110      2106      2104      2107      2108
      2106      2104      2107      2109      2106      2104      2107      2110
      2107      2110      2113      2114      2107      2110      2113      2115
      2107      2110      2113      2116      2108      2107      2110      2111
      2108      2107      2110      2112      2108      2107      2110      2113
      2109      2107      2110      2111      2109      2107      2110      2112
      2109      2107      2110      2113      2110      2113      2116      2117
      2110      2113      2116      2118      2110      2113      2116      2119
      2111      2110      2113      2114      2111      2110      2113      2115
      2111      2110      2113      2116      2112      2110      2113      2114
      2112      2110      2113      2115      2112      2110      2113      2116
      2113      2116      2119      2120      2113      2116      2119      2121
      2113      2116      2119      2122      2114      2113      2116      2117
      2114      2113      2116      2118      2114      2113      2116      2119
      2115      2113      2116      2117      2115      2113      2116      2118
      2115      2113      2116      2119      2116      2119      2122      2123
      2116      2119      2122      2124      2116      2119      2122      2125
      2117      2116      2119      2120      2117      2116      2119      2121
      2117      2116      2119      2122      2118      2116      2119      2120
      2118      2116      2119      2121      2118      2116      2119      2122
      2119      2122      2125      2126      2119      2122      2125      2127
      2119      2122      2125      2128      2120      2119      2122      2123
      2120      2119      2122      2124      2120      2119      2122      2125
      2121      2119      2122      2123      2121      2119      2122      2124
      2121      2119      2122      2125      2123      2122      2125      2126
      2123      2122      2125      2127      2123      2122      2125      2128
      2124      2122      2125      2126      2124      2122      2125      2127
      2124      2122      2125      2128     13987     14000     14003     14004
     13987     14000     14003     14005     13987     14000     14003     14010
     13988     13987     13992     13993     13988     13987     13992     13994
     13988     13987     13992     13995     13988     13987     13996     13997
     13988     13987     13996     13998     13988     13987     13996     13999
     13988     13987     14000     14001     13988     13987     14000     14002
     13988     13987     14000     14003     13989     13988     13987     13992
     13989     13988     13987     13996     13989     13988     13987     14000
     13990     13988     13987     13992     13990     13988     13987     13996
     13990     13988     13987     14000     13991     13988     13987     13992
     13991     13988     13987     13996     13991     13988     13987     14000
     13992     13987     13996     13997     13992     13987     13996     13998
     13992     13987     13996     13999     13992     13987     14000     14001
     13992     13987     14000     14002     13992     13987     14000     14003
     13993     13992     13987     13996     13993     13992     13987     14000
     13994     13992     13987     13996     13994     13992     13987     14000
     13995     13992     13987     13996     13995     13992     13987     14000
     13996     13987     14000     14001     13996     13987     14000     14002
     13996     13987     14000     14003     13997     13996     13987     14000
     13998     13996     13987     14000     13999     13996     13987     14000
     14000     14003     14010     14006     14001     14000     14003     14004
     14001     14000     14003     14005     14001     14000     14003     14010
     14002     14000     14003     14004     14002     14000     14003     14005
     14002     14000     14003     14010     14003     14010     14006     14007
     14003     14010     14006     14008     14003     14010     14006     14009
     14004     14003     14010     14006     14005     14003     14010     14006
     14006     14009     14011     14012     14006     14009     14011     14013
     14006     14009     14011     14016     14007     14006     14009     14011
     14008     14006     14009     14011     14009     14011     14016     14014
     14009     14011     14016     14017     14009     14011     14016     14018
     14010     14006     14009     14011     14011     14016     14014     14015
     14011     14016     14014     14066     14011     14016     14018     14019
     14011     14016     14018     14020     14011     14016     14018     14022
     14012     14011     14016     14014     14012     14011     14016     14017
     14012     14011     14016     14018     14013     14011     14016     14014
     14013     14011     14016     14017     14013     14011     14016     14018
     14014     14016     14018     14019     14014     14016     14018     14020
     14014     14016     14018     14022     14014     14066     14068     14069
     14014     14066     14068     14070     14014     14066     14068     14071
     14015     14014     14016     14017     14015     14014     14016     14018
     14015     14014     14066     14067     14015     14014     14066     14068
     14016     14014     14066     14067     14016     14014     14066     14068
     14016     14018     14020     14021     14016     14018     14022     14023
     14016     14018     14022     14024     14017     14016     14014     14066
     14017     14016     14018     14019     14017     14016     14018     14020
     14017     14016     14018     14022     14018     14016     14014     14066
     14018     14022     14024     14025     14018     14022     14024     14026
     14019     14018     14020     14021     14019     14018     14022     14023
     14019     14018     14022     14024     14020     14018     14022     14023
     14020     14018     14022     14024     14021     14020     14018     14022
     14022     14024     14026     14027     14022     14024     14026     14028
     14022     14024     14026     14029     14023     14022     14024     14025
     14023     14022     14024     14026     14024     14026     14029     14030
     14024     14026     14029     14031     14024     14026     14029     14032
     14025     14024     14026     14027     14025     14024     14026     14028
     14025     14024     14026     14029     14026     14029     14032     14033
     14026     14029     14032     14034     14026     14029     14032     14035
     14027     14026     14029     14030     14027     14026     14029     14031
     14027     14026     14029     14032     14028     14026     14029     14030
     14028     14026     14029     14031     14028     14026     14029     14032
     14029     14032     14035     14036     14029     14032     14035     14037
     14029     14032     14035     14038     14030     14029     14032     14033
     14030     14029     14032     14034     14030     14029     14032     14035
     14031     14029     14032     14033     14031     14029     14032     14034
     14031     14029     14032     14035     14032     14035     14038     14039
     14032     14035     14038     14040     14032     14035     14038     14041
     14033     14032     14035     14036     14033     14032     14035     14037
     14033     14032     14035     14038     14034     14032     14035     14036
     14034     14032     14035     14037     14034     14032     14035     14038
     14035     14038     14041     14042     14035     14038     14041     14043
     14035     14038     14041     14044     14036     14035     14038     14039
     14036     14035     14038     14040     14036     14035     14038     14041
     14037     14035     14038     14039     14037     14035     14038     14040
     14037     14035     14038     14041     14038     14041     14044     14045
     14038     14041     14044     14046     14038     14041     14044     14047
     14039     14038     14041     14042     14039     14038     14041     14043
     14039     14038     14041     14044     14040     14038     14041     14042
     14040     14038     14041     14043     14040     14038     14041     14044
     14041     14044     14047     14048     14041     14044     14047     14049
     14041     14044     14047     14050     14042     14041     14044     14045
     14042     14041     14044     14046     14042     14041     14044     14047
     14043     14041     14044     14045     14043     14041     14044     14046
     14043     14041     14044     14047     14044     14047     14050     14051
     14044     14047     14050     14052     14044     14047     14050     14053
     14045     14044     14047     14048     14045     14044     14047     14049
     14045     14044     14047     14050     14046     14044     14047     14048
     14046     14044     14047     14049     14046     14044     14047     14050
     14047     14050     14053     14054     14047     14050     14053     14055
     14047     14050     14053     14056     14048     14047     14050     14051
     14048     14047     14050     14052     14048     14047     14050     14053
     14049     14047     14050     14051     14049     14047     14050     14052
     14049     14047     14050     14053     14050     14053     14056     14057
     14050     14053     14056     14058     14050     14053     14056     14059
     14051     14050     14053     14054     14051     14050     14053     14055
     14051     14050     14053     14056     14052     14050     14053     14054
     14052     14050     14053     14055     14052     14050     14053     14056
     14053     14056     14059     14060     14053     14056     14059     14061
     14053     14056     14059     14062     14054     14053     14056     14057
     14054     14053     14056     14058     14054     14053     14056     14059
     14055     14053     14056     14057     14055     14053     14056     14058
     14055     14053     14056     14059     14056     14059     14062     14063
     14056     14059     14062     14064     14056     14059     14062     14065
     14057     14056     14059     14060     14057     14056     14059     14061
     14057     14056     14059     14062     14058     14056     14059     14060
     14058     14056     14059     14061     14058     14056     14059     14062
     14060     14059     14062     14063     14060     14059     14062     14064
     14060     14059     14062     14065     14061     14059     14062     14063
     14061     14059     14062     14064     14061     14059     14062     14065
     14066     14068     14071     14072     14066     14068     14071     14073
     14066     14068     14071     14074     14067     14066     14068     14069
     14067     14066     14068     14070     14067     14066     14068     14071
     14068     14071     14074     14075     14068     14071     14074     14076
     14068     14071     14074     14077     14069     14068     14071     14072
     14069     14068     14071     14073     14069     14068     14071     14074
     14070     14068     14071     14072     14070     14068     14071     14073
     14070     14068     14071     14074     14071     14074     14077     14078
     14071     14074     14077     14079     14071     14074     14077     14080
     14072     14071     14074     14075     14072     14071     14074     14076
     14072     14071     14074     14077     14073     14071     14074     14075
     14073     14071     14074     14076     14073     14071     14074     14077
     14074     14077     14080     14081     14074     14077     14080     14082
     14074     14077     14080     14083     14075     14074     14077     14078
     14075     14074     14077     14079     14075     14074     14077     14080
     14076     14074     14077     14078     14076     14074     14077     14079
     14076     14074     14077     14080     14077     14080     14083     14084
     14077     14080     14083     14085     14077     14080     14083     14086
     14078     14077     14080     14081     14078     14077     14080     14082
     14078     14077     14080     14083     14079     14077     14080     14081
     14079     14077     14080     14082     14079     14077     14080     14083
     14080     14083     14086     14087     14080     14083     14086     14088
     14080     14083     14086     14089     14081     14080     14083     14084
     14081     14080     14083     14085     14081     14080     14083     14086
     14082     14080     14083     14084     14082     14080     14083     14085
     14082     14080     14083     14086     14083     14086     14089     14090
     14083     14086     14089     14091     14084     14083     14086     14087
     14084     14083     14086     14088     14084     14083     14086     14089
     14085     14083     14086     14087     14085     14083     14086     14088
     14085     14083     14086     14089     14086     14089     14091     14092
     14086     14089     14091     14093     14087     14086     14089     14090
     14087     14086     14089     14091     14088     14086     14089     14090
     14088     14086     14089     14091     14089     14091     14093     14094
     14089     14091     14093     14095     14089     14091     14093     14096
     14090     14089     14091     14092     14090     14089     14091     14093
     14091     14093     14096     14097     14091     14093     14096     14098
     14091     14093     14096     14099     14092     14091     14093     14094
     14092     14091     14093     14095     14092     14091     14093     14096
     14093     14096     14099     14100     14093     14096     14099     14101
     14093     14096     14099     14102     14094     14093     14096     14097
     14094     14093     14096     14098     14094     14093     14096     14099
     14095     14093     14096     14097     14095     14093     14096     14098
     14095     14093     14096     14099     14096     14099     14102     14103
     14096     14099     14102     14104     14096     14099     14102     14105
     14097     14096     14099     14100     14097     14096     14099     14101
     14097     14096     14099     14102     14098     14096     14099     14100
     14098     14096     14099     14101     14098     14096     14099     14102
     14099     14102     14105     14106     14099     14102     14105     14107
     14099     14102     14105     14108     14100     14099     14102     14103
     14100     14099     14102     14104     14100     14099     14102     14105
     14101     14099     14102     14103     14101     14099     14102     14104
     14101     14099     14102     14105     14102     14105     14108     14109
     14102     14105     14108     14110     14102     14105     14108     14111
     14103     14102     14105     14106     14103     14102     14105     14107
     14103     14102     14105     14108     14104     14102     14105     14106
     14104     14102     14105     14107     14104     14102     14105     14108
     14105     14108     14111     14112     14105     14108     14111     14113
     14105     14108     14111     14114     14106     14105     14108     14109
     14106     14105     14108     14110     14106     14105     14108     14111
     14107     14105     14108     14109     14107     14105     14108     14110
     14107     14105     14108     14111     14108     14111     14114     14115
     14108     14111     14114     14116     14108     14111     14114     14117
     14109     14108     14111     14112     14109     14108     14111     14113
     14109     14108     14111     14114     14110     14108     14111     14112
     14110     14108     14111     14113     14110     14108     14111     14114
     14112     14111     14114     14115     14112     14111     14114     14116
     14112     14111     14114     14117     14113     14111     14114     14115
     14113     14111     14114     14116     14113     14111     14114     14117
     17917     17921     17924     17925     17917     17921     17924     17926
     17917     17921     17924     17930     17918     17917     17921     17922
     17918     17917     17921     17923     17918     17917     17921     17924
     17919     17917     17921     17922     17919     17917     17921     17923
     17919     17917     17921     17924     17920     17917     17921     17922
     17920     17917     17921     17923     17920     17917     17921     17924
     17921     17924     17930     17927     17922     17921     17924     17925
     17922     17921     17924     17926     17922     17921     17924     17930
     17923     17921     17924     17925     17923     17921     17924     17926
     17923     17921     17924     17930     17924     17930     17927     17928
     17924     17930     17927     17929     17924     17930     17927     17931
     17925     17924     17930     17927     17926     17924     17930     17927
     17927     17931     17932     17933     17927     17931     17932     17934
     17927     17931     17932     17935     17928     17927     17931     17932
     17929     17927     17931     17932     17930     17927     17931     17932
     17931     17932     17935     17936     17931     17932     17935     17937
     17931     17932     17935     17943     17932     17935     17937     17938
     17932     17935     17943     17944     17932     17935     17943     17945
     17932     17935     17943     17946     17933     17932     17935     17936
     17933     17932     17935     17937     17933     17932     17935     17943
     17934     17932     17935     17936     17934     17932     17935     17937
     17934     17932     17935     17943     17935     17937     17938     17939
     17935     17937     17938     17940     17935     17943     17946     17947
     17936     17935     17937     17938     17936     17935     17943     17944
     17936     17935     17943     17945     17936     17935     17943     17946
     17937     17935     17943     17944     17937     17935     17943     17945
     17937     17935     17943     17946     17937     17938     17940     17941
     17937     17938     17940     17942     17937     17938     17940     17952
     17938     17937     17935     17943     17938     17940     17952     17953
     17938     17940     17952     17954     17938     17940     17952     17955
     17939     17938     17940     17941     17939     17938     17940     17942
     17939     17938     17940     17952     17940     17952     17955     17956
     17940     17952     17955     17957     17940     17952     17955     17958
     17941     17940     17952     17953     17941     17940     17952     17954
     17941     17940     17952     17955     17942     17940     17952     17953
     17942     17940     17952     17954     17942     17940     17952     17955
     17943     17946     17947     17948     17943     17946     17947     17949
     17944     17943     17946     17947     17945     17943     17946     17947
     17946     17947     17949     17950     17946     17947     17949     17951
     17946     17947     17949     17999     17947     17949     17999     18000
     17947     17949     17999     18001     17947     17949     17999     18002
     17948     17947     17949     17950     17948     17947     17949     17951
     17948     17947     17949     17999     17949     17999     18002     18003
     17949     17999     18002     18004     17949     17999     18002     18005
     17950     17949     17999     18000     17950     17949     17999     18001
     17950     17949     17999     18002     17951     17949     17999     18000
     17951     17949     17999     18001     17951     17949     17999     18002
     17952     17955     17958     17959     17952     17955     17958     17960
     17953     17952     17955     17956     17953     17952     17955     17957
     17953     17952     17955     17958     17954     17952     17955     17956
     17954     17952     17955     17957     17954     17952     17955     17958
     17955     17958     17960     17961     17955     17958     17960     17962
     17956     17955     17958     17959     17956     17955     17958     17960
     17957     17955     17958     17959     17957     17955     17958     17960
     17958     17960     17962     17963     17958     17960     17962     17964
     17958     17960     17962     17965     17959     17958     17960     17961
     17959     17958     17960     17962     17960     17962     17965     17966
     17960     17962     17965     17967     17961     17960     17962     17963
     17961     17960     17962     17964     17961     17960     17962     17965
     17962     17965     17967     17968     17962     17965     17967     17969
     17963     17962     17965     17966     17963     17962     17965     17967
     17964     17962     17965     17966     17964     17962     17965     17967
     17965     17967     17969     17970     17965     17967     17969     17971
     17965     17967     17969     17972     17966     17965     17967     17968
     17966     17965     17967     17969     17967     17969     17972     17973
     17967     17969     17972     17974     17968     17967     17969     17970
     17968     17967     17969     17971     17968     17967     17969     17972
     17969     17972     17974     17975     17969     17972     17974     17976
     17970     17969     17972     17973     17970     17969     17972     17974
     17971     17969     17972     17973     17971     17969     17972     17974
     17972     17974     17976     17977     17972     17974     17976     17978
     17972     17974     17976     17979     17973     17972     17974     17975
     17973     17972     17974     17976     17974     17976     17979     17980
     17974     17976     17979     17981     17975     17974     17976     17977
     17975     17974     17976     17978     17975     17974     17976     17979
     17976     17979     17981     17982     17976     17979     17981     17983
     17977     17976     17979     17980     17977     17976     17979     17981
     17978     17976     17979     17980     17978     17976     17979     17981
     17979     17981     17983     17984     17979     17981     17983     17985
     17979     17981     17983     17986     17980     17979     17981     17982
     17980     17979     17981     17983     17981     17983     17986     17987
     17981     17983     17986     17988     17981     17983     17986     17989
     17982     17981     17983     17984     17982     17981     17983     17985
     17982     17981     17983     17986     17983     17986     17989     17990
     17983     17986     17989     17991     17983     17986     17989     17992
     17984     17983     17986     17987     17984     17983     17986     17988
     17984     17983     17986     17989     17985     17983     17986     17987
     17985     17983     17986     17988     17985     17983     17986     17989
     17986     17989     17992     17993     17986     17989     17992     17994
     17986     17989     17992     17995     17987     17986     17989     17990
     17987     17986     17989     17991     17987     17986     17989     17992
     17988     17986     17989     17990     17988     17986     17989     17991
     17988     17986     17989     17992     17989     17992     17995     17996
     17989     17992     17995     17997     17989     17992     17995     17998
     17990     17989     17992     17993     17990     17989     17992     17994
     17990     17989     17992     17995     17991     17989     17992     17993
     17991     17989     17992     17994     17991     17989     17992     17995
     17993     17992     17995     17996     17993     17992     17995     17997
     17993     17992     17995     17998     17994     17992     17995     17996
     17994     17992     17995     17997     17994     17992     17995     17998
     17999     18002     18005     18006     17999     18002     18005     18007
     17999     18002     18005     18008     18000     17999     18002     18003
     18000     17999     18002     18004     18000     17999     18002     18005
     18001     17999     18002     18003     18001     17999     18002     18004
     18001     17999     18002     18005     18002     18005     18008     18009
     18002     18005     18008     18010     18002     18005     18008     18011
     18003     18002     18005     18006     18003     18002     18005     18007
     18003     18002     18005     18008     18004     18002     18005     18006
     18004     18002     18005     18007     18004     18002     18005     18008
     18005     18008     18011     18012     18005     18008     18011     18013
     18005     18008     18011     18014     18006     18005     18008     18009
     18006     18005     18008     18010     18006     18005     18008     18011
     18007     18005     18008     18009     18007     18005     18008     18010
     18007     18005     18008     18011     18008     18011     18014     18015
     18008     18011     18014     18016     18008     18011     18014     18017
     18009     18008     18011     18012     18009     18008     18011     18013
     18009     18008     18011     18014     18010     18008     18011     18012
     18010     18008     18011     18013     18010     18008     18011     18014
     18011     18014     18017     18018     18011     18014     18017     18019
     18011     18014     18017     18020     18012     18011     18014     18015
     18012     18011     18014     18016     18012     18011     18014     18017
     18013     18011     18014     18015     18013     18011     18014     18016
     18013     18011     18014     18017     18014     18017     18020     18021
     18014     18017     18020     18022     18014     18017     18020     18023
     18015     18014     18017     18018     18015     18014     18017     18019
     18015     18014     18017     18020     18016     18014     18017     18018
     18016     18014     18017     18019     18016     18014     18017     18020
     18017     18020     18023     18024     18017     18020     18023     18025
     18017     18020     18023     18026     18018     18017     18020     18021
     18018     18017     18020     18022     18018     18017     18020     18023
     18019     18017     18020     18021     18019     18017     18020     18022
     18019     18017     18020     18023     18020     18023     18026     18027
     18020     18023     18026     18028     18020     18023     18026     18029
     18021     18020     18023     18024     18021     18020     18023     18025
     18021     18020     18023     18026     18022     18020     18023     18024
     18022     18020     18023     18025     18022     18020     18023     18026
     18023     18026     18029     18030     18023     18026     18029     18031
     18023     18026     18029     18032     18024     18023     18026     18027
     18024     18023     18026     18028     18024     18023     18026     18029
     18025     18023     18026     18027     18025     18023     18026     18028
     18025     18023     18026     18029     18026     18029     18032     18033
     18026     18029     18032     18034     18026     18029     18032     18035
     18027     18026     18029     18030     18027     18026     18029     18031
     18027     18026     18029     18032     18028     18026     18029     18030
     18028     18026     18029     18031     18028     18026     18029     18032
     18029     18032     18035     18036     18029     18032     18035     18037
     18029     18032     18035     18038     18030     18029     18032     18033
     18030     18029     18032     18034     18030     18029     18032     18035
     18031     18029     18032     18033     18031     18029     18032     18034
     18031     18029     18032     18035     18032     18035     18038     18039
     18032     18035     18038     18040     18032     18035     18038     18041
     18033     18032     18035     18036     18033     18032     18035     18037
     18033     18032     18035     18038     18034     18032     18035     18036
     18034     18032     18035     18037     18034     18032     18035     18038
     18035     18038     18041     18042     18035     18038     18041     18043
     18035     18038     18041     18044     18036     18035     18038     18039
     18036     18035     18038     18040     18036     18035     18038     18041
     18037     18035     18038     18039     18037     18035     18038     18040
     18037     18035     18038     18041     18038     18041     18044     18045
     18038     18041     18044     18046     18038     18041     18044     18047
     18039     18038     18041     18042     18039     18038     18041     18043
     18039     18038     18041     18044     18040     18038     18041     18042
     18040     18038     18041     18043     18040     18038     18041     18044
     18042     18041     18044     18045     18042     18041     18044     18046
     18042     18041     18044     18047     18043     18041     18044     18045
     18043     18041     18044     18046     18043     18041     18044     18047
      5325      5329      5332      5333      5325      5329      5332      5363
      5325      5371      5368      5363      5325      5371      5368      5369
      5325      5371      5368      5370      5326      5325      5327      5328
      5326      5325      5329      5330      5326      5325      5329      5331
      5326      5325      5329      5332      5326      5325      5371      5368
      5326      5325      5371      5372      5326      5325      5371      5373
      5327      5325      5329      5330      5327      5325      5329      5331
      5327      5325      5329      5332      5327      5325      5371      5368
      5327      5325      5371      5372      5327      5325      5371      5373
      5328      5327      5325      5329      5328      5327      5325      5371
      5329      5325      5371      5368      5329      5325      5371      5372
      5329      5325      5371      5373      5329      5332      5333      5334
      5329      5332      5333      5335      5329      5332      5363      5361
      5329      5332      5363      5364      5329      5332      5363      5368
      5330      5329      5325      5371      5330      5329      5332      5333
      5330      5329      5332      5363      5331      5329      5325      5371
      5331      5329      5332      5333      5331      5329      5332      5363
      5332      5329      5325      5371      5332      5333      5335      5336
      5332      5333      5335      5337      5332      5333      5335      5338
      5332      5363      5361      5338      5332      5363      5361      5358
      5332      5363      5361      5362      5332      5363      5364      5365
      5332      5363      5364      5366      5332      5363      5364      5367
      5332      5363      5368      5369      5332      5363      5368      5370
      5332      5363      5368      5371      5333      5332      5363      5361
      5333      5332      5363      5364      5333      5332      5363      5368
      5333      5335      5338      5339      5333      5335      5338      5340
      5333      5335      5338      5361      5334      5333      5332      5363
      5334      5333      5335      5336      5334      5333      5335      5337
      5334      5333      5335      5338      5335      5333      5332      5363
      5335      5338      5340      5341      5335      5338      5340      5342
      5335      5338      5340      5350      5335      5338      5361      5358
      5335      5338      5361      5362      5335      5338      5361      5363
      5336      5335      5338      5339      5336      5335      5338      5340
      5336      5335      5338      5361      5337      5335      5338      5339
      5337      5335      5338      5340      5337      5335      5338      5361
      5338      5340      5342      5343      5338      5340      5342      5344
      5338      5340      5342      5345      5338      5340      5350      5348
      5338      5340      5350      5351      5338      5340      5350      5355
      5338      5361      5358      5355      5338      5361      5358      5359
      5338      5361      5358      5360      5338      5361      5363      5364
      5338      5361      5363      5368      5339      5338      5340      5341
      5339      5338      5340      5342      5339      5338      5340      5350
      5339      5338      5361      5358      5339      5338      5361      5362
      5339      5338      5361      5363      5340      5338      5361      5358
      5340      5338      5361      5362      5340      5338      5361      5363
      5340      5342      5345      5346      5340      5342      5345      5347
      5340      5342      5345      5348      5340      5350      5348      5345
      5340      5350      5348      5349      5340      5350      5348      5374
      5340      5350      5351      5352      5340      5350      5351      5353
      5340      5350      5351      5354      5340      5350      5355      5356
      5340      5350      5355      5357      5340      5350      5355      5358
      5341      5340      5338      5361      5341      5340      5342      5343
      5341      5340      5342      5344      5341      5340      5342      5345
      5341      5340      5350      5348      5341      5340      5350      5351
      5341      5340      5350      5355      5342      5340      5338      5361
      5342      5340      5350      5348      5342      5340      5350      5351
      5342      5340      5350      5355      5342      5345      5348      5349
      5342      5345      5348      5350      5342      5345      5348      5374
      5343      5342      5340      5350      5343      5342      5345      5346
      5343      5342      5345      5347      5343      5342      5345      5348
      5344      5342      5340      5350      5344      5342      5345      5346
      5344      5342      5345      5347      5344      5342      5345      5348
      5345      5342      5340      5350      5345      5348      5350      5351
      5345      5348      5350      5355      5345      5348      5374      5375
      5345      5348      5374      5376      5345      5348      5374      5380
      5346      5345      5348      5349      5346      5345      5348      5350
      5346      5345      5348      5374      5347      5345      5348      5349
      5347      5345      5348      5350      5347      5345      5348      5374
      5348      5350      5351      5352      5348      5350      5351      5353
      5348      5350      5351      5354      5348      5350      5355      5356
      5348      5350      5355      5357      5348      5350      5355      5358
      5348      5374      5376      5377      5348      5374      5376      5378
      5348      5374      5376      5379      5348      5374      5380      5381
      5348      5374      5380      5382      5348      5374      5380      5383
      5349      5348      5350      5351      5349      5348      5350      5355
      5349      5348      5374      5375      5349      5348      5374      5376
      5349      5348      5374      5380      5350      5340      5338      5361
      5350      5348      5374      5375      5350      5348      5374      5376
      5350      5348      5374      5380      5350      5355      5358      5359
      5350      5355      5358      5360      5350      5355      5358      5361
      5351      5350      5348      5374      5351      5350      5355      5356
      5351      5350      5355      5357      5351      5350      5355      5358
      5352      5351      5350      5355      5353      5351      5350      5355
      5354      5351      5350      5355      5355      5350      5348      5374
      5355      5358      5361      5362      5355      5358      5361      5363
      5356      5355      5358      5359      5356      5355      5358      5360
      5356      5355      5358      5361      5357      5355      5358      5359
      5357      5355      5358      5360      5357      5355      5358      5361
      5358      5361      5363      5364      5358      5361      5363      5368
      5359      5358      5361      5362      5359      5358      5361      5363
      5360      5358      5361      5362      5360      5358      5361      5363
      5361      5363      5364      5365      5361      5363      5364      5366
      5361      5363      5364      5367      5361      5363      5368      5369
      5361      5363      5368      5370      5361      5363      5368      5371
      5362      5361      5363      5364      5362      5361      5363      5368
      5363      5368      5371      5372      5363      5368      5371      5373
      5364      5363      5368      5369      5364      5363      5368      5370
      5364      5363      5368      5371      5365      5364      5363      5368
      5366      5364      5363      5368      5367      5364      5363      5368
      5369      5368      5371      5372      5369      5368      5371      5373
      5370      5368      5371      5372      5370      5368      5371      5373
      5374      5380      5383      5384      5374      5380      5383      5385
      5374      5380      5383      5386      5375      5374      5376      5377
      5375      5374      5376      5378      5375      5374      5376      5379
      5375      5374      5380      5381      5375      5374      5380      5382
      5375      5374      5380      5383      5376      5374      5380      5381
      5376      5374      5380      5382      5376      5374      5380      5383
      5377      5376      5374      5380      5378      5376      5374      5380
      5379      5376      5374      5380      5380      5383      5386      5387
      5380      5383      5386      5388      5380      5383      5386      5389
      5381      5380      5383      5384      5381      5380      5383      5385
      5381      5380      5383      5386      5382      5380      5383      5384
      5382      5380      5383      5385      5382      5380      5383      5386
      5383      5386      5389      5390      5383      5386      5389      5391
      5383      5386      5389      5395      5384      5383      5386      5387
      5384      5383      5386      5388      5384      5383      5386      5389
      5385      5383      5386      5387      5385      5383      5386      5388
      5385      5383      5386      5389      5386      5389      5391      5392
      5386      5389      5391      5393      5386      5389      5391      5394
      5386      5389      5395      5396      5386      5389      5395      5397
      5386      5389      5395      5398      5387      5386      5389      5390
      5387      5386      5389      5391      5387      5386      5389      5395
      5388      5386      5389      5390      5388      5386      5389      5391
      5388      5386      5389      5395      5390      5389      5391      5392
      5390      5389      5391      5393      5390      5389      5391      5394
      5390      5389      5395      5396      5390      5389      5395      5397
      5390      5389      5395      5398      5391      5389      5395      5396
      5391      5389      5395      5397      5391      5389      5395      5398
      5392      5391      5389      5395      5393      5391      5389      5395
      5394      5391      5389      5395     14118     14131     14134     14135
     14118     14131     14134     14136     14118     14131     14134     14141
     14119     14118     14123     14124     14119     14118     14123     14125
     14119     14118     14123     14126     14119     14118     14127     14128
     14119     14118     14127     14129     14119     14118     14127     14130
     14119     14118     14131     14132     14119     14118     14131     14133
     14119     14118     14131     14134     14120     14119     14118     14123
     14120     14119     14118     14127     14120     14119     14118     14131
     14121     14119     14118     14123     14121     14119     14118     14127
     14121     14119     14118     14131     14122     14119     14118     14123
     14122     14119     14118     14127     14122     14119     14118     14131
     14123     14118     14127     14128     14123     14118     14127     14129
     14123     14118     14127     14130     14123     14118     14131     14132
     14123     14118     14131     14133     14123     14118     14131     14134
     14124     14123     14118     14127     14124     14123     14118     14131
     14125     14123     14118     14127     14125     14123     14118     14131
     14126     14123     14118     14127     14126     14123     14118     14131
     14127     14118     14131     14132     14127     14118     14131     14133
     14127     14118     14131     14134     14128     14127     14118     14131
     14129     14127     14118     14131     14130     14127     14118     14131
     14131     14134     14141     14137     14132     14131     14134     14135
     14132     14131     14134     14136     14132     14131     14134     14141
     14133     14131     14134     14135     14133     14131     14134     14136
     14133     14131     14134     14141     14134     14141     14137     14138
     14134     14141     14137     14139     14134     14141     14137     14140
     14135     14134     14141     14137     14136     14134     14141     14137
     14137     14140     14142     14143     14137     14140     14142     14144
     14137     14140     14142     14147     14138     14137     14140     14142
     14139     14137     14140     14142     14140     14142     14147     14145
     14140     14142     14147     14148     14140     14142     14147     14149
     14141     14137     14140     14142     14142     14147     14145     14146
     14142     14147     14145     14197     14142     14147     14149     14150
     14142     14147     14149     14151     14142     14147     14149     14153
     14143     14142     14147     14145     14143     14142     14147     14148
     14143     14142     14147     14149     14144     14142     14147     14145
     14144     14142     14147     14148     14144     14142     14147     14149
     14145     14147     14149     14150     14145     14147     14149     14151
     14145     14147     14149     14153     14145     14197     14199     14200
     14145     14197     14199     14201     14145     14197     14199     14202
     14146     14145     14147     14148     14146     14145     14147     14149
     14146     14145     14197     14198     14146     14145     14197     14199
     14147     14145     14197     14198     14147     14145     14197     14199
     14147     14149     14151     14152     14147     14149     14153     14154
     14147     14149     14153     14155     14148     14147     14145     14197
     14148     14147     14149     14150     14148     14147     14149     14151
     14148     14147     14149     14153     14149     14147     14145     14197
     14149     14153     14155     14156     14149     14153     14155     14157
     14150     14149     14151     14152     14150     14149     14153     14154
     14150     14149     14153     14155     14151     14149     14153     14154
     14151     14149     14153     14155     14152     14151     14149     14153
     14153     14155     14157     14158     14153     14155     14157     14159
     14153     14155     14157     14160     14154     14153     14155     14156
     14154     14153     14155     14157     14155     14157     14160     14161
     14155     14157     14160     14162     14155     14157     14160     14163
     14156     14155     14157     14158     14156     14155     14157     14159
     14156     14155     14157     14160     14157     14160     14163     14164
     14157     14160     14163     14165     14157     14160     14163     14166
     14158     14157     14160     14161     14158     14157     14160     14162
     14158     14157     14160     14163     14159     14157     14160     14161
     14159     14157     14160     14162     14159     14157     14160     14163
     14160     14163     14166     14167     14160     14163     14166     14168
     14160     14163     14166     14169     14161     14160     14163     14164
     14161     14160     14163     14165     14161     14160     14163     14166
     14162     14160     14163     14164     14162     14160     14163     14165
     14162     14160     14163     14166     14163     14166     14169     14170
     14163     14166     14169     14171     14163     14166     14169     14172
     14164     14163     14166     14167     14164     14163     14166     14168
     14164     14163     14166     14169     14165     14163     14166     14167
     14165     14163     14166     14168     14165     14163     14166     14169
     14166     14169     14172     14173     14166     14169     14172     14174
     14166     14169     14172     14175     14167     14166     14169     14170
     14167     14166     14169     14171     14167     14166     14169     14172
     14168     14166     14169     14170     14168     14166     14169     14171
     14168     14166     14169     14172     14169     14172     14175     14176
     14169     14172     14175     14177     14169     14172     14175     14178
     14170     14169     14172     14173     14170     14169     14172     14174
     14170     14169     14172     14175     14171     14169     14172     14173
     14171     14169     14172     14174     14171     14169     14172     14175
     14172     14175     14178     14179     14172     14175     14178     14180
     14172     14175     14178     14181     14173     14172     14175     14176
     14173     14172     14175     14177     14173     14172     14175     14178
     14174     14172     14175     14176     14174     14172     14175     14177
     14174     14172     14175     14178     14175     14178     14181     14182
     14175     14178     14181     14183     14175     14178     14181     14184
     14176     14175     14178     14179     14176     14175     14178     14180
     14176     14175     14178     14181     14177     14175     14178     14179
     14177     14175     14178     14180     14177     14175     14178     14181
     14178     14181     14184     14185     14178     14181     14184     14186
     14178     14181     14184     14187     14179     14178     14181     14182
     14179     14178     14181     14183     14179     14178     14181     14184
     14180     14178     14181     14182     14180     14178     14181     14183
     14180     14178     14181     14184     14181     14184     14187     14188
     14181     14184     14187     14189     14181     14184     14187     14190
     14182     14181     14184     14185     14182     14181     14184     14186
     14182     14181     14184     14187     14183     14181     14184     14185
     14183     14181     14184     14186     14183     14181     14184     14187
     14184     14187     14190     14191     14184     14187     14190     14192
     14184     14187     14190     14193     14185     14184     14187     14188
     14185     14184     14187     14189     14185     14184     14187     14190
     14186     14184     14187     14188     14186     14184     14187     14189
     14186     14184     14187     14190     14187     14190     14193     14194
     14187     14190     14193     14195     14187     14190     14193     14196
     14188     14187     14190     14191     14188     14187     14190     14192
     14188     14187     14190     14193     14189     14187     14190     14191
     14189     14187     14190     14192     14189     14187     14190     14193
     14191     14190     14193     14194     14191     14190     14193     14195
     14191     14190     14193     14196     14192     14190     14193     14194
     14192     14190     14193     14195     14192     14190     14193     14196
     14197     14199     14202     14203     14197     14199     14202     14204
     14197     14199     14202     14205     14198     14197     14199     14200
     14198     14197     14199     14201     14198     14197     14199     14202
     14199     14202     14205     14206     14199     14202     14205     14207
     14199     14202     14205     14208     14200     14199     14202     14203
     14200     14199     14202     14204     14200     14199     14202     14205
     14201     14199     14202     14203     14201     14199     14202     14204
     14201     14199     14202     14205     14202     14205     14208     14209
     14202     14205     14208     14210     14202     14205     14208     14211
     14203     14202     14205     14206     14203     14202     14205     14207
     14203     14202     14205     14208     14204     14202     14205     14206
     14204     14202     14205     14207     14204     14202     14205     14208
     14205     14208     14211     14212     14205     14208     14211     14213
     14205     14208     14211     14214     14206     14205     14208     14209
     14206     14205     14208     14210     14206     14205     14208     14211
     14207     14205     14208     14209     14207     14205     14208     14210
     14207     14205     14208     14211     14208     14211     14214     14215
     14208     14211     14214     14216     14208     14211     14214     14217
     14209     14208     14211     14212     14209     14208     14211     14213
     14209     14208     14211     14214     14210     14208     14211     14212
     14210     14208     14211     14213     14210     14208     14211     14214
     14211     14214     14217     14218     14211     14214     14217     14219
     14211     14214     14217     14220     14212     14211     14214     14215
     14212     14211     14214     14216     14212     14211     14214     14217
     14213     14211     14214     14215     14213     14211     14214     14216
     14213     14211     14214     14217     14214     14217     14220     14221
     14214     14217     14220     14222     14215     14214     14217     14218
     14215     14214     14217     14219     14215     14214     14217     14220
     14216     14214     14217     14218     14216     14214     14217     14219
     14216     14214     14217     14220     14217     14220     14222     14223
     14217     14220     14222     14224     14218     14217     14220     14221
     14218     14217     14220     14222     14219     14217     14220     14221
     14219     14217     14220     14222     14220     14222     14224     14225
     14220     14222     14224     14226     14220     14222     14224     14227
     14221     14220     14222     14223     14221     14220     14222     14224
     14222     14224     14227     14228     14222     14224     14227     14229
     14222     14224     14227     14230     14223     14222     14224     14225
     14223     14222     14224     14226     14223     14222     14224     14227
     14224     14227     14230     14231     14224     14227     14230     14232
     14224     14227     14230     14233     14225     14224     14227     14228
     14225     14224     14227     14229     14225     14224     14227     14230
     14226     14224     14227     14228     14226     14224     14227     14229
     14226     14224     14227     14230     14227     14230     14233     14234
     14227     14230     14233     14235     14227     14230     14233     14236
     14228     14227     14230     14231     14228     14227     14230     14232
     14228     14227     14230     14233     14229     14227     14230     14231
     14229     14227     14230     14232     14229     14227     14230     14233
     14230     14233     14236     14237     14230     14233     14236     14238
     14230     14233     14236     14239     14231     14230     14233     14234
     14231     14230     14233     14235     14231     14230     14233     14236
     14232     14230     14233     14234     14232     14230     14233     14235
     14232     14230     14233     14236     14233     14236     14239     14240
     14233     14236     14239     14241     14233     14236     14239     14242
     14234     14233     14236     14237     14234     14233     14236     14238
     14234     14233     14236     14239     14235     14233     14236     14237
     14235     14233     14236     14238     14235     14233     14236     14239
     14236     14239     14242     14243     14236     14239     14242     14244
     14236     14239     14242     14245     14237     14236     14239     14240
     14237     14236     14239     14241     14237     14236     14239     14242
     14238     14236     14239     14240     14238     14236     14239     14241
     14238     14236     14239     14242     14239     14242     14245     14246
     14239     14242     14245     14247     14239     14242     14245     14248
     14240     14239     14242     14243     14240     14239     14242     14244
     14240     14239     14242     14245     14241     14239     14242     14243
     14241     14239     14242     14244     14241     14239     14242     14245
     14243     14242     14245     14246     14243     14242     14245     14247
     14243     14242     14245     14248     14244     14242     14245     14246
     14244     14242     14245     14247     14244     14242     14245     14248
     14249     14262     14265     14266     14249     14262     14265     14267
     14249     14262     14265     14272     14250     14249     14254     14255
     14250     14249     14254     14256     14250     14249     14254     14257
     14250     14249     14258     14259     14250     14249     14258     14260
     14250     14249     14258     14261     14250     14249     14262     14263
     14250     14249     14262     14264     14250     14249     14262     14265
     14251     14250     14249     14254     14251     14250     14249     14258
     14251     14250     14249     14262     14252     14250     14249     14254
     14252     14250     14249     14258     14252     14250     14249     14262
     14253     14250     14249     14254     14253     14250     14249     14258
     14253     14250     14249     14262     14254     14249     14258     14259
     14254     14249     14258     14260     14254     14249     14258     14261
     14254     14249     14262     14263     14254     14249     14262     14264
     14254     14249     14262     14265     14255     14254     14249     14258
     14255     14254     14249     14262     14256     14254     14249     14258
     14256     14254     14249     14262     14257     14254     14249     14258
     14257     14254     14249     14262     14258     14249     14262     14263
     14258     14249     14262     14264     14258     14249     14262     14265
     14259     14258     14249     14262     14260     14258     14249     14262
     14261     14258     14249     14262     14262     14265     14272     14268
     14263     14262     14265     14266     14263     14262     14265     14267
     14263     14262     14265     14272     14264     14262     14265     14266
     14264     14262     14265     14267     14264     14262     14265     14272
     14265     14272     14268     14269     14265     14272     14268     14270
     14265     14272     14268     14271     14266     14265     14272     14268
     14267     14265     14272     14268     14268     14271     14273     14274
     14268     14271     14273     14275     14268     14271     14273     14278
     14269     14268     14271     14273     14270     14268     14271     14273
     14271     14273     14278     14276     14271     14273     14278     14279
     14271     14273     14278     14280     14272     14268     14271     14273
     14273     14278     14276     14277     14273     14278     14276     14328
     14273     14278     14280     14281     14273     14278     14280     14282
     14273     14278     14280     14284     14274     14273     14278     14276
     14274     14273     14278     14279     14274     14273     14278     14280
     14275     14273     14278     14276     14275     14273     14278     14279
     14275     14273     14278     14280     14276     14278     14280     14281
     14276     14278     14280     14282     14276     14278     14280     14284
     14276     14328     14330     14331     14276     14328     14330     14332
     14276     14328     14330     14333     14277     14276     14278     14279
     14277     14276     14278     14280     14277     14276     14328     14329
     14277     14276     14328     14330     14278     14276     14328     14329
     14278     14276     14328     14330     14278     14280     14282     14283
     14278     14280     14284     14285     14278     14280     14284     14286
     14279     14278     14276     14328     14279     14278     14280     14281
     14279     14278     14280     14282     14279     14278     14280     14284
     14280     14278     14276     14328     14280     14284     14286     14287
     14280     14284     14286     14288     14281     14280     14282     14283
     14281     14280     14284     14285     14281     14280     14284     14286
     14282     14280     14284     14285     14282     14280     14284     14286
     14283     14282     14280     14284     14284     14286     14288     14289
     14284     14286     14288     14290     14284     14286     14288     14291
     14285     14284     14286     14287     14285     14284     14286     14288
     14286     14288     14291     14292     14286     14288     14291     14293
     14286     14288     14291     14294     14287     14286     14288     14289
     14287     14286     14288     14290     14287     14286     14288     14291
     14288     14291     14294     14295     14288     14291     14294     14296
     14288     14291     14294     14297     14289     14288     14291     14292
     14289     14288     14291     14293     14289     14288     14291     14294
     14290     14288     14291     14292     14290     14288     14291     14293
     14290     14288     14291     14294     14291     14294     14297     14298
     14291     14294     14297     14299     14291     14294     14297     14300
     14292     14291     14294     14295     14292     14291     14294     14296
     14292     14291     14294     14297     14293     14291     14294     14295
     14293     14291     14294     14296     14293     14291     14294     14297
     14294     14297     14300     14301     14294     14297     14300     14302
     14294     14297     14300     14303     14295     14294     14297     14298
     14295     14294     14297     14299     14295     14294     14297     14300
     14296     14294     14297     14298     14296     14294     14297     14299
     14296     14294     14297     14300     14297     14300     14303     14304
     14297     14300     14303     14305     14297     14300     14303     14306
     14298     14297     14300     14301     14298     14297     14300     14302
     14298     14297     14300     14303     14299     14297     14300     14301
     14299     14297     14300     14302     14299     14297     14300     14303
     14300     14303     14306     14307     14300     14303     14306     14308
     14300     14303     14306     14309     14301     14300     14303     14304
     14301     14300     14303     14305     14301     14300     14303     14306
     14302     14300     14303     14304     14302     14300     14303     14305
     14302     14300     14303     14306     14303     14306     14309     14310
     14303     14306     14309     14311     14303     14306     14309     14312
     14304     14303     14306     14307     14304     14303     14306     14308
     14304     14303     14306     14309     14305     14303     14306     14307
     14305     14303     14306     14308     14305     14303     14306     14309
     14306     14309     14312     14313     14306     14309     14312     14314
     14306     14309     14312     14315     14307     14306     14309     14310
     14307     14306     14309     14311     14307     14306     14309     14312
     14308     14306     14309     14310     14308     14306     14309     14311
     14308     14306     14309     14312     14309     14312     14315     14316
     14309     14312     14315     14317     14309     14312     14315     14318
     14310     14309     14312     14313     14310     14309     14312     14314
     14310     14309     14312     14315     14311     14309     14312     14313
     14311     14309     14312     14314     14311     14309     14312     14315
     14312     14315     14318     14319     14312     14315     14318     14320
     14312     14315     14318     14321     14313     14312     14315     14316
     14313     14312     14315     14317     14313     14312     14315     14318
     14314     14312     14315     14316     14314     14312     14315     14317
     14314     14312     14315     14318     14315     14318     14321     14322
     14315     14318     14321     14323     14315     14318     14321     14324
     14316     14315     14318     14319     14316     14315     14318     14320
     14316     14315     14318     14321     14317     14315     14318     14319
     14317     14315     14318     14320     14317     14315     14318     14321
     14318     14321     14324     14325     14318     14321     14324     14326
     14318     14321     14324     14327     14319     14318     14321     14322
     14319     14318     14321     14323     14319     14318     14321     14324
     14320     14318     14321     14322     14320     14318     14321     14323
     14320     14318     14321     14324     14322     14321     14324     14325
     14322     14321     14324     14326     14322     14321     14324     14327
     14323     14321     14324     14325     14323     14321     14324     14326
     14323     14321     14324     14327     14328     14330     14333     14334
     14328     14330     14333     14335     14328     14330     14333     14336
     14329     14328     14330     14331     14329     14328     14330     14332
     14329     14328     14330     14333     14330     14333     14336     14337
     14330     14333     14336     14338     14330     14333     14336     14339
     14331     14330     14333     14334     14331     14330     14333     14335
     14331     14330     14333     14336     14332     14330     14333     14334
     14332     14330     14333     14335     14332     14330     14333     14336
     14333     14336     14339     14340     14333     14336     14339     14341
     14333     14336     14339     14342     14334     14333     14336     14337
     14334     14333     14336     14338     14334     14333     14336     14339
     14335     14333     14336     14337     14335     14333     14336     14338
     14335     14333     14336     14339     14336     14339     14342     14343
     14336     14339     14342     14344     14336     14339     14342     14345
     14337     14336     14339     14340     14337     14336     14339     14341
     14337     14336     14339     14342     14338     14336     14339     14340
     14338     14336     14339     14341     14338     14336     14339     14342
     14339     14342     14345     14346     14339     14342     14345     14347
     14339     14342     14345     14348     14340     14339     14342     14343
     14340     14339     14342     14344     14340     14339     14342     14345
     14341     14339     14342     14343     14341     14339     14342     14344
     14341     14339     14342     14345     14342     14345     14348     14349
     14342     14345     14348     14350     14342     14345     14348     14351
     14343     14342     14345     14346     14343     14342     14345     14347
     14343     14342     14345     14348     14344     14342     14345     14346
     14344     14342     14345     14347     14344     14342     14345     14348
     14345     14348     14351     14352     14345     14348     14351     14353
     14346     14345     14348     14349     14346     14345     14348     14350
     14346     14345     14348     14351     14347     14345     14348     14349
     14347     14345     14348     14350     14347     14345     14348     14351
     14348     14351     14353     14354     14348     14351     14353     14355
     14349     14348     14351     14352     14349     14348     14351     14353
     14350     14348     14351     14352     14350     14348     14351     14353
     14351     14353     14355     14356     14351     14353     14355     14357
     14351     14353     14355     14358     14352     14351     14353     14354
     14352     14351     14353     14355     14353     14355     14358     14359
     14353     14355     14358     14360     14353     14355     14358     14361
     14354     14353     14355     14356     14354     14353     14355     14357
     14354     14353     14355     14358     14355     14358     14361     14362
     14355     14358     14361     14363     14355     14358     14361     14364
     14356     14355     14358     14359     14356     14355     14358     14360
     14356     14355     14358     14361     14357     14355     14358     14359
     14357     14355     14358     14360     14357     14355     14358     14361
     14358     14361     14364     14365     14358     14361     14364     14366
     14358     14361     14364     14367     14359     14358     14361     14362
     14359     14358     14361     14363     14359     14358     14361     14364
     14360     14358     14361     14362     14360     14358     14361     14363
     14360     14358     14361     14364     14361     14364     14367     14368
     14361     14364     14367     14369     14361     14364     14367     14370
     14362     14361     14364     14365     14362     14361     14364     14366
     14362     14361     14364     14367     14363     14361     14364     14365
     14363     14361     14364     14366     14363     14361     14364     14367
     14364     14367     14370     14371     14364     14367     14370     14372
     14364     14367     14370     14373     14365     14364     14367     14368
     14365     14364     14367     14369     14365     14364     14367     14370
     14366     14364     14367     14368     14366     14364     14367     14369
     14366     14364     14367     14370     14367     14370     14373     14374
     14367     14370     14373     14375     14367     14370     14373     14376
     14368     14367     14370     14371     14368     14367     14370     14372
     14368     14367     14370     14373     14369     14367     14370     14371
     14369     14367     14370     14372     14369     14367     14370     14373
     14370     14373     14376     14377     14370     14373     14376     14378
     14370     14373     14376     14379     14371     14370     14373     14374
     14371     14370     14373     14375     14371     14370     14373     14376
     14372     14370     14373     14374     14372     14370     14373     14375
     14372     14370     14373     14376     14374     14373     14376     14377
     14374     14373     14376     14378     14374     14373     14376     14379
     14375     14373     14376     14377     14375     14373     14376     14378
     14375     14373     14376     14379     20593     20606     20609     20610
     20593     20606     20609     20611     20593     20606     20609     20615
     20594     20593     20598     20599     20594     20593     20598     20600
     20594     20593     20598     20601     20594     20593     20602     20603
     20594     20593     20602     20604     20594     20593     20602     20605
     20594     20593     20606     20607     20594     20593     20606     20608
     20594     20593     20606     20609     20595     20594     20593     20598
     20595     20594     20593     20602     20595     20594     20593     20606
     20596     20594     20593     20598     20596     20594     20593     20602
     20596     20594     20593     20606     20597     20594     20593     20598
     20597     20594     20593     20602     20597     20594     20593     20606
     20598     20593     20602     20603     20598     20593     20602     20604
     20598     20593     20602     20605     20598     20593     20606     20607
     20598     20593     20606     20608     20598     20593     20606     20609
     20599     20598     20593     20602     20599     20598     20593     20606
     20600     20598     20593     20602     20600     20598     20593     20606
     20601     20598     20593     20602     20601     20598     20593     20606
     20602     20593     20606     20607     20602     20593     20606     20608
     20602     20593     20606     20609     20603     20602     20593     20606
     20604     20602     20593     20606     20605     20602     20593     20606
     20606     20609     20615     20612     20607     20606     20609     20610
     20607     20606     20609     20611     20607     20606     20609     20615
     20608     20606     20609     20610     20608     20606     20609     20611
     20608     20606     20609     20615     20609     20615     20612     20613
     20609     20615     20612     20614     20609     20615     20612     20616
     20610     20609     20615     20612     20611     20609     20615     20612
     20612     20616     20617     20618     20612     20616     20617     20619
     20612     20616     20617     20620     20613     20612     20616     20617
     20614     20612     20616     20617     20615     20612     20616     20617
     20616     20617     20620     20621     20616     20617     20620     20622
     20616     20617     20620     20628     20617     20620     20622     20623
     20617     20620     20628     20629     20617     20620     20628     20630
     20617     20620     20628     20631     20618     20617     20620     20621
     20618     20617     20620     20622     20618     20617     20620     20628
     20619     20617     20620     20621     20619     20617     20620     20622
     20619     20617     20620     20628     20620     20622     20623     20624
     20620     20622     20623     20625     20620     20628     20631     20632
     20621     20620     20622     20623     20621     20620     20628     20629
     20621     20620     20628     20630     20621     20620     20628     20631
     20622     20620     20628     20629     20622     20620     20628     20630
     20622     20620     20628     20631     20622     20623     20625     20626
     20622     20623     20625     20627     20622     20623     20625     20637
     20623     20622     20620     20628     20623     20625     20637     20638
     20623     20625     20637     20639     20623     20625     20637     20640
     20624     20623     20625     20626     20624     20623     20625     20627
     20624     20623     20625     20637     20625     20637     20640     20641
     20625     20637     20640     20642     20625     20637     20640     20643
     20626     20625     20637     20638     20626     20625     20637     20639
     20626     20625     20637     20640     20627     20625     20637     20638
     20627     20625     20637     20639     20627     20625     20637     20640
     20628     20631     20632     20633     20628     20631     20632     20634
     20629     20628     20631     20632     20630     20628     20631     20632
     20631     20632     20634     20635     20631     20632     20634     20636
     20631     20632     20634     20682     20632     20634     20682     20683
     20632     20634     20682     20684     20632     20634     20682     20685
     20633     20632     20634     20635     20633     20632     20634     20636
     20633     20632     20634     20682     20634     20682     20685     20686
     20634     20682     20685     20687     20634     20682     20685     20688
     20635     20634     20682     20683     20635     20634     20682     20684
     20635     20634     20682     20685     20636     20634     20682     20683
     20636     20634     20682     20684     20636     20634     20682     20685
     20637     20640     20643     20644     20637     20640     20643     20645
     20637     20640     20643     20646     20638     20637     20640     20641
     20638     20637     20640     20642     20638     20637     20640     20643
     20639     20637     20640     20641     20639     20637     20640     20642
     20639     20637     20640     20643     20640     20643     20646     20647
     20640     20643     20646     20648     20640     20643     20646     20649
     20641     20640     20643     20644     20641     20640     20643     20645
     20641     20640     20643     20646     20642     20640     20643     20644
     20642     20640     20643     20645     20642     20640     20643     20646
     20643     20646     20649     20650     20643     20646     20649     20651
     20643     20646     20649     20652     20644     20643     20646     20647
     20644     20643     20646     20648     20644     20643     20646     20649
     20645     20643     20646     20647     20645     20643     20646     20648
     20645     20643     20646     20649     20646     20649     20652     20653
     20646     20649     20652     20654     20646     20649     20652     20655
     20647     20646     20649     20650     20647     20646     20649     20651
     20647     20646     20649     20652     20648     20646     20649     20650
     20648     20646     20649     20651     20648     20646     20649     20652
     20649     20652     20655     20656     20649     20652     20655     20657
     20650     20649     20652     20653     20650     20649     20652     20654
     20650     20649     20652     20655     20651     20649     20652     20653
     20651     20649     20652     20654     20651     20649     20652     20655
     20652     20655     20657     20658     20652     20655     20657     20659
     20653     20652     20655     20656     20653     20652     20655     20657
     20654     20652     20655     20656     20654     20652     20655     20657
     20655     20657     20659     20660     20655     20657     20659     20661
     20655     20657     20659     20662     20656     20655     20657     20658
     20656     20655     20657     20659     20657     20659     20662     20663
     20657     20659     20662     20664     20658     20657     20659     20660
     20658     20657     20659     20661     20658     20657     20659     20662
     20659     20662     20664     20665     20659     20662     20664     20666
     20660     20659     20662     20663     20660     20659     20662     20664
     20661     20659     20662     20663     20661     20659     20662     20664
     20662     20664     20666     20667     20662     20664     20666     20668
     20662     20664     20666     20669     20663     20662     20664     20665
     20663     20662     20664     20666     20664     20666     20669     20670
     20664     20666     20669     20671     20664     20666     20669     20672
     20665     20664     20666     20667     20665     20664     20666     20668
     20665     20664     20666     20669     20666     20669     20672     20673
     20666     20669     20672     20674     20666     20669     20672     20675
     20667     20666     20669     20670     20667     20666     20669     20671
     20667     20666     20669     20672     20668     20666     20669     20670
     20668     20666     20669     20671     20668     20666     20669     20672
     20669     20672     20675     20676     20669     20672     20675     20677
     20669     20672     20675     20678     20670     20669     20672     20673
     20670     20669     20672     20674     20670     20669     20672     20675
     20671     20669     20672     20673     20671     20669     20672     20674
     20671     20669     20672     20675     20672     20675     20678     20679
     20672     20675     20678     20680     20672     20675     20678     20681
     20673     20672     20675     20676     20673     20672     20675     20677
     20673     20672     20675     20678     20674     20672     20675     20676
     20674     20672     20675     20677     20674     20672     20675     20678
     20676     20675     20678     20679     20676     20675     20678     20680
     20676     20675     20678     20681     20677     20675     20678     20679
     20677     20675     20678     20680     20677     20675     20678     20681
     20682     20685     20688     20689     20682     20685     20688     20690
     20682     20685     20688     20691     20683     20682     20685     20686
     20683     20682     20685     20687     20683     20682     20685     20688
     20684     20682     20685     20686     20684     20682     20685     20687
     20684     20682     20685     20688     20685     20688     20691     20692
     20685     20688     20691     20693     20685     20688     20691     20694
     20686     20685     20688     20689     20686     20685     20688     20690
     20686     20685     20688     20691     20687     20685     20688     20689
     20687     20685     20688     20690     20687     20685     20688     20691
     20688     20691     20694     20695     20688     20691     20694     20696
     20688     20691     20694     20697     20689     20688     20691     20692
     20689     20688     20691     20693     20689     20688     20691     20694
     20690     20688     20691     20692     20690     20688     20691     20693
     20690     20688     20691     20694     20691     20694     20697     20698
     20691     20694     20697     20699     20691     20694     20697     20700
     20692     20691     20694     20695     20692     20691     20694     20696
     20692     20691     20694     20697     20693     20691     20694     20695
     20693     20691     20694     20696     20693     20691     20694     20697
     20694     20697     20700     20701     20694     20697     20700     20702
     20694     20697     20700     20703     20695     20694     20697     20698
     20695     20694     20697     20699     20695     20694     20697     20700
     20696     20694     20697     20698     20696     20694     20697     20699
     20696     20694     20697     20700     20697     20700     20703     20704
     20697     20700     20703     20705     20697     20700     20703     20706
     20698     20697     20700     20701     20698     20697     20700     20702
     20698     20697     20700     20703     20699     20697     20700     20701
     20699     20697     20700     20702     20699     20697     20700     20703
     20700     20703     20706     20707     20700     20703     20706     20708
     20700     20703     20706     20709     20701     20700     20703     20704
     20701     20700     20703     20705     20701     20700     20703     20706
     20702     20700     20703     20704     20702     20700     20703     20705
     20702     20700     20703     20706     20703     20706     20709     20710
     20703     20706     20709     20711     20703     20706     20709     20712
     20704     20703     20706     20707     20704     20703     20706     20708
     20704     20703     20706     20709     20705     20703     20706     20707
     20705     20703     20706     20708     20705     20703     20706     20709
     20706     20709     20712     20713     20706     20709     20712     20714
     20706     20709     20712     20715     20707     20706     20709     20710
     20707     20706     20709     20711     20707     20706     20709     20712
     20708     20706     20709     20710     20708     20706     20709     20711
     20708     20706     20709     20712     20709     20712     20715     20716
     20709     20712     20715     20717     20709     20712     20715     20718
     20710     20709     20712     20713     20710     20709     20712     20714
     20710     20709     20712     20715     20711     20709     20712     20713
     20711     20709     20712     20714     20711     20709     20712     20715
     20712     20715     20718     20719     20712     20715     20718     20720
     20712     20715     20718     20721     20713     20712     20715     20716
     20713     20712     20715     20717     20713     20712     20715     20718
     20714     20712     20715     20716     20714     20712     20715     20717
     20714     20712     20715     20718     20715     20718     20721     20722
     20715     20718     20721     20723     20715     20718     20721     20724
     20716     20715     20718     20719     20716     20715     20718     20720
     20716     20715     20718     20721     20717     20715     20718     20719
     20717     20715     20718     20720     20717     20715     20718     20721
     20718     20721     20724     20725     20718     20721     20724     20726
     20718     20721     20724     20727     20719     20718     20721     20722
     20719     20718     20721     20723     20719     20718     20721     20724
     20720     20718     20721     20722     20720     20718     20721     20723
     20720     20718     20721     20724     20721     20724     20727     20728
     20721     20724     20727     20729     20721     20724     20727     20730
     20722     20721     20724     20725     20722     20721     20724     20726
     20722     20721     20724     20727     20723     20721     20724     20725
     20723     20721     20724     20726     20723     20721     20724     20727
     20725     20724     20727     20728     20725     20724     20727     20729
     20725     20724     20727     20730     20726     20724     20727     20728
     20726     20724     20727     20729     20726     20724     20727     20730
     14380     14393     14396     14397     14380     14393     14396     14398
     14380     14393     14396     14403     14381     14380     14385     14386
     14381     14380     14385     14387     14381     14380     14385     14388
     14381     14380     14389     14390     14381     14380     14389     14391
     14381     14380     14389     14392     14381     14380     14393     14394
     14381     14380     14393     14395     14381     14380     14393     14396
     14382     14381     14380     14385     14382     14381     14380     14389
     14382     14381     14380     14393     14383     14381     14380     14385
     14383     14381     14380     14389     14383     14381     14380     14393
     14384     14381     14380     14385     14384     14381     14380     14389
     14384     14381     14380     14393     14385     14380     14389     14390
     14385     14380     14389     14391     14385     14380     14389     14392
     14385     14380     14393     14394     14385     14380     14393     14395
     14385     14380     14393     14396     14386     14385     14380     14389
     14386     14385     14380     14393     14387     14385     14380     14389
     14387     14385     14380     14393     14388     14385     14380     14389
     14388     14385     14380     14393     14389     14380     14393     14394
     14389     14380     14393     14395     14389     14380     14393     14396
     14390     14389     14380     14393     14391     14389     14380     14393
     14392     14389     14380     14393     14393     14396     14403     14399
     14394     14393     14396     14397     14394     14393     14396     14398
     14394     14393     14396     14403     14395     14393     14396     14397
     14395     14393     14396     14398     14395     14393     14396     14403
     14396     14403     14399     14400     14396     14403     14399     14401
     14396     14403     14399     14402     14397     14396     14403     14399
     14398     14396     14403     14399     14399     14402     14404     14405
     14399     14402     14404     14406     14399     14402     14404     14409
     14400     14399     14402     14404     14401     14399     14402     14404
     14402     14404     14409     14407     14402     14404     14409     14410
     14402     14404     14409     14411     14403     14399     14402     14404
     14404     14409     14407     14408     14404     14409     14407     14459
     14404     14409     14411     14412     14404     14409     14411     14413
     14404     14409     14411     14415     14405     14404     14409     14407
     14405     14404     14409     14410     14405     14404     14409     14411
     14406     14404     14409     14407     14406     14404     14409     14410
     14406     14404     14409     14411     14407     14409     14411     14412
     14407     14409     14411     14413     14407     14409     14411     14415
     14407     14459     14461     14462     14407     14459     14461     14463
     14407     14459     14461     14464     14408     14407     14409     14410
     14408     14407     14409     14411     14408     14407     14459     14460
     14408     14407     14459     14461     14409     14407     14459     14460
     14409     14407     14459     14461     14409     14411     14413     14414
     14409     14411     14415     14416     14409     14411     14415     14417
     14410     14409     14407     14459     14410     14409     14411     14412
     14410     14409     14411     14413     14410     14409     14411     14415
     14411     14409     14407     14459     14411     14415     14417     14418
     14411     14415     14417     14419     14412     14411     14413     14414
     14412     14411     14415     14416     14412     14411     14415     14417
     14413     14411     14415     14416     14413     14411     14415     14417
     14414     14413     14411     14415     14415     14417     14419     14420
     14415     14417     14419     14421     14415     14417     14419     14422
     14416     14415     14417     14418     14416     14415     14417     14419
     14417     14419     14422     14423     14417     14419     14422     14424
     14417     14419     14422     14425     14418     14417     14419     14420
     14418     14417     14419     14421     14418     14417     14419     14422
     14419     14422     14425     14426     14419     14422     14425     14427
     14419     14422     14425     14428     14420     14419     14422     14423
     14420     14419     14422     14424     14420     14419     14422     14425
     14421     14419     14422     14423     14421     14419     14422     14424
     14421     14419     14422     14425     14422     14425     14428     14429
     14422     14425     14428     14430     14422     14425     14428     14431
     14423     14422     14425     14426     14423     14422     14425     14427
     14423     14422     14425     14428     14424     14422     14425     14426
     14424     14422     14425     14427     14424     14422     14425     14428
     14425     14428     14431     14432     14425     14428     14431     14433
     14425     14428     14431     14434     14426     14425     14428     14429
     14426     14425     14428     14430     14426     14425     14428     14431
     14427     14425     14428     14429     14427     14425     14428     14430
     14427     14425     14428     14431     14428     14431     14434     14435
     14428     14431     14434     14436     14428     14431     14434     14437
     14429     14428     14431     14432     14429     14428     14431     14433
     14429     14428     14431     14434     14430     14428     14431     14432
     14430     14428     14431     14433     14430     14428     14431     14434
     14431     14434     14437     14438     14431     14434     14437     14439
     14431     14434     14437     14440     14432     14431     14434     14435
     14432     14431     14434     14436     14432     14431     14434     14437
     14433     14431     14434     14435     14433     14431     14434     14436
     14433     14431     14434     14437     14434     14437     14440     14441
     14434     14437     14440     14442     14434     14437     14440     14443
     14435     14434     14437     14438     14435     14434     14437     14439
     14435     14434     14437     14440     14436     14434     14437     14438
     14436     14434     14437     14439     14436     14434     14437     14440
     14437     14440     14443     14444     14437     14440     14443     14445
     14437     14440     14443     14446     14438     14437     14440     14441
     14438     14437     14440     14442     14438     14437     14440     14443
     14439     14437     14440     14441     14439     14437     14440     14442
     14439     14437     14440     14443     14440     14443     14446     14447
     14440     14443     14446     14448     14440     14443     14446     14449
     14441     14440     14443     14444     14441     14440     14443     14445
     14441     14440     14443     14446     14442     14440     14443     14444
     14442     14440     14443     14445     14442     14440     14443     14446
     14443     14446     14449     14450     14443     14446     14449     14451
     14443     14446     14449     14452     14444     14443     14446     14447
     14444     14443     14446     14448     14444     14443     14446     14449
     14445     14443     14446     14447     14445     14443     14446     14448
     14445     14443     14446     14449     14446     14449     14452     14453
     14446     14449     14452     14454     14446     14449     14452     14455
     14447     14446     14449     14450     14447     14446     14449     14451
     14447     14446     14449     14452     14448     14446     14449     14450
     14448     14446     14449     14451     14448     14446     14449     14452
     14449     14452     14455     14456     14449     14452     14455     14457
     14449     14452     14455     14458     14450     14449     14452     14453
     14450     14449     14452     14454     14450     14449     14452     14455
     14451     14449     14452     14453     14451     14449     14452     14454
     14451     14449     14452     14455     14453     14452     14455     14456
     14453     14452     14455     14457     14453     14452     14455     14458
     14454     14452     14455     14456     14454     14452     14455     14457
     14454     14452     14455     14458     14459     14461     14464     14465
     14459     14461     14464     14466     14459     14461     14464     14467
     14460     14459     14461     14462     14460     14459     14461     14463
     14460     14459     14461     14464     14461     14464     14467     14468
     14461     14464     14467     14469     14461     14464     14467     14470
     14462     14461     14464     14465     14462     14461     14464     14466
     14462     14461     14464     14467     14463     14461     14464     14465
     14463     14461     14464     14466     14463     14461     14464     14467
     14464     14467     14470     14471     14464     14467     14470     14472
     14464     14467     14470     14473     14465     14464     14467     14468
     14465     14464     14467     14469     14465     14464     14467     14470
     14466     14464     14467     14468     14466     14464     14467     14469
     14466     14464     14467     14470     14467     14470     14473     14474
     14467     14470     14473     14475     14467     14470     14473     14476
     14468     14467     14470     14471     14468     14467     14470     14472
     14468     14467     14470     14473     14469     14467     14470     14471
     14469     14467     14470     14472     14469     14467     14470     14473
     14470     14473     14476     14477     14470     14473     14476     14478
     14470     14473     14476     14479     14471     14470     14473     14474
     14471     14470     14473     14475     14471     14470     14473     14476
     14472     14470     14473     14474     14472     14470     14473     14475
     14472     14470     14473     14476     14473     14476     14479     14480
     14473     14476     14479     14481     14473     14476     14479     14482
     14474     14473     14476     14477     14474     14473     14476     14478
     14474     14473     14476     14479     14475     14473     14476     14477
     14475     14473     14476     14478     14475     14473     14476     14479
     14476     14479     14482     14483     14476     14479     14482     14484
     14477     14476     14479     14480     14477     14476     14479     14481
     14477     14476     14479     14482     14478     14476     14479     14480
     14478     14476     14479     14481     14478     14476     14479     14482
     14479     14482     14484     14485     14479     14482     14484     14486
     14480     14479     14482     14483     14480     14479     14482     14484
     14481     14479     14482     14483     14481     14479     14482     14484
     14482     14484     14486     14487     14482     14484     14486     14488
     14482     14484     14486     14489     14483     14482     14484     14485
     14483     14482     14484     14486     14484     14486     14489     14490
     14484     14486     14489     14491     14484     14486     14489     14492
     14485     14484     14486     14487     14485     14484     14486     14488
     14485     14484     14486     14489     14486     14489     14492     14493
     14486     14489     14492     14494     14486     14489     14492     14495
     14487     14486     14489     14490     14487     14486     14489     14491
     14487     14486     14489     14492     14488     14486     14489     14490
     14488     14486     14489     14491     14488     14486     14489     14492
     14489     14492     14495     14496     14489     14492     14495     14497
     14489     14492     14495     14498     14490     14489     14492     14493
     14490     14489     14492     14494     14490     14489     14492     14495
     14491     14489     14492     14493     14491     14489     14492     14494
     14491     14489     14492     14495     14492     14495     14498     14499
     14492     14495     14498     14500     14492     14495     14498     14501
     14493     14492     14495     14496     14493     14492     14495     14497
     14493     14492     14495     14498     14494     14492     14495     14496
     14494     14492     14495     14497     14494     14492     14495     14498
     14495     14498     14501     14502     14495     14498     14501     14503
     14495     14498     14501     14504     14496     14495     14498     14499
     14496     14495     14498     14500     14496     14495     14498     14501
     14497     14495     14498     14499     14497     14495     14498     14500
     14497     14495     14498     14501     14498     14501     14504     14505
     14498     14501     14504     14506     14498     14501     14504     14507
     14499     14498     14501     14502     14499     14498     14501     14503
     14499     14498     14501     14504     14500     14498     14501     14502
     14500     14498     14501     14503     14500     14498     14501     14504
     14501     14504     14507     14508     14501     14504     14507     14509
     14501     14504     14507     14510     14502     14501     14504     14505
     14502     14501     14504     14506     14502     14501     14504     14507
     14503     14501     14504     14505     14503     14501     14504     14506
     14503     14501     14504     14507     14505     14504     14507     14508
     14505     14504     14507     14509     14505     14504     14507     14510
     14506     14504     14507     14508     14506     14504     14507     14509
     14506     14504     14507     14510     14511     14524     14527     14528
     14511     14524     14527     14529     14511     14524     14527     14534
     14512     14511     14516     14517     14512     14511     14516     14518
     14512     14511     14516     14519     14512     14511     14520     14521
     14512     14511     14520     14522     14512     14511     14520     14523
     14512     14511     14524     14525     14512     14511     14524     14526
     14512     14511     14524     14527     14513     14512     14511     14516
     14513     14512     14511     14520     14513     14512     14511     14524
     14514     14512     14511     14516     14514     14512     14511     14520
     14514     14512     14511     14524     14515     14512     14511     14516
     14515     14512     14511     14520     14515     14512     14511     14524
     14516     14511     14520     14521     14516     14511     14520     14522
     14516     14511     14520     14523     14516     14511     14524     14525
     14516     14511     14524     14526     14516     14511     14524     14527
     14517     14516     14511     14520     14517     14516     14511     14524
     14518     14516     14511     14520     14518     14516     14511     14524
     14519     14516     14511     14520     14519     14516     14511     14524
     14520     14511     14524     14525     14520     14511     14524     14526
     14520     14511     14524     14527     14521     14520     14511     14524
     14522     14520     14511     14524     14523     14520     14511     14524
     14524     14527     14534     14530     14525     14524     14527     14528
     14525     14524     14527     14529     14525     14524     14527     14534
     14526     14524     14527     14528     14526     14524     14527     14529
     14526     14524     14527     14534     14527     14534     14530     14531
     14527     14534     14530     14532     14527     14534     14530     14533
     14528     14527     14534     14530     14529     14527     14534     14530
     14530     14533     14535     14536     14530     14533     14535     14537
     14530     14533     14535     14540     14531     14530     14533     14535
     14532     14530     14533     14535     14533     14535     14540     14538
     14533     14535     14540     14541     14533     14535     14540     14542
     14534     14530     14533     14535     14535     14540     14538     14539
     14535     14540     14538     14590     14535     14540     14542     14543
     14535     14540     14542     14544     14535     14540     14542     14546
     14536     14535     14540     14538     14536     14535     14540     14541
     14536     14535     14540     14542     14537     14535     14540     14538
     14537     14535     14540     14541     14537     14535     14540     14542
     14538     14540     14542     14543     14538     14540     14542     14544
     14538     14540     14542     14546     14538     14590     14592     14593
     14538     14590     14592     14594     14538     14590     14592     14595
     14539     14538     14540     14541     14539     14538     14540     14542
     14539     14538     14590     14591     14539     14538     14590     14592
     14540     14538     14590     14591     14540     14538     14590     14592
     14540     14542     14544     14545     14540     14542     14546     14547
     14540     14542     14546     14548     14541     14540     14538     14590
     14541     14540     14542     14543     14541     14540     14542     14544
     14541     14540     14542     14546     14542     14540     14538     14590
     14542     14546     14548     14549     14542     14546     14548     14550
     14543     14542     14544     14545     14543     14542     14546     14547
     14543     14542     14546     14548     14544     14542     14546     14547
     14544     14542     14546     14548     14545     14544     14542     14546
     14546     14548     14550     14551     14546     14548     14550     14552
     14546     14548     14550     14553     14547     14546     14548     14549
     14547     14546     14548     14550     14548     14550     14553     14554
     14548     14550     14553     14555     14548     14550     14553     14556
     14549     14548     14550     14551     14549     14548     14550     14552
     14549     14548     14550     14553     14550     14553     14556     14557
     14550     14553     14556     14558     14550     14553     14556     14559
     14551     14550     14553     14554     14551     14550     14553     14555
     14551     14550     14553     14556     14552     14550     14553     14554
     14552     14550     14553     14555     14552     14550     14553     14556
     14553     14556     14559     14560     14553     14556     14559     14561
     14553     14556     14559     14562     14554     14553     14556     14557
     14554     14553     14556     14558     14554     14553     14556     14559
     14555     14553     14556     14557     14555     14553     14556     14558
     14555     14553     14556     14559     14556     14559     14562     14563
     14556     14559     14562     14564     14556     14559     14562     14565
     14557     14556     14559     14560     14557     14556     14559     14561
     14557     14556     14559     14562     14558     14556     14559     14560
     14558     14556     14559     14561     14558     14556     14559     14562
     14559     14562     14565     14566     14559     14562     14565     14567
     14559     14562     14565     14568     14560     14559     14562     14563
     14560     14559     14562     14564     14560     14559     14562     14565
     14561     14559     14562     14563     14561     14559     14562     14564
     14561     14559     14562     14565     14562     14565     14568     14569
     14562     14565     14568     14570     14562     14565     14568     14571
     14563     14562     14565     14566     14563     14562     14565     14567
     14563     14562     14565     14568     14564     14562     14565     14566
     14564     14562     14565     14567     14564     14562     14565     14568
     14565     14568     14571     14572     14565     14568     14571     14573
     14565     14568     14571     14574     14566     14565     14568     14569
     14566     14565     14568     14570     14566     14565     14568     14571
     14567     14565     14568     14569     14567     14565     14568     14570
     14567     14565     14568     14571     14568     14571     14574     14575
     14568     14571     14574     14576     14568     14571     14574     14577
     14569     14568     14571     14572     14569     14568     14571     14573
     14569     14568     14571     14574     14570     14568     14571     14572
     14570     14568     14571     14573     14570     14568     14571     14574
     14571     14574     14577     14578     14571     14574     14577     14579
     14571     14574     14577     14580     14572     14571     14574     14575
     14572     14571     14574     14576     14572     14571     14574     14577
     14573     14571     14574     14575     14573     14571     14574     14576
     14573     14571     14574     14577     14574     14577     14580     14581
     14574     14577     14580     14582     14574     14577     14580     14583
     14575     14574     14577     14578     14575     14574     14577     14579
     14575     14574     14577     14580     14576     14574     14577     14578
     14576     14574     14577     14579     14576     14574     14577     14580
     14577     14580     14583     14584     14577     14580     14583     14585
     14577     14580     14583     14586     14578     14577     14580     14581
     14578     14577     14580     14582     14578     14577     14580     14583
     14579     14577     14580     14581     14579     14577     14580     14582
     14579     14577     14580     14583     14580     14583     14586     14587
     14580     14583     14586     14588     14580     14583     14586     14589
     14581     14580     14583     14584     14581     14580     14583     14585
     14581     14580     14583     14586     14582     14580     14583     14584
     14582     14580     14583     14585     14582     14580     14583     14586
     14584     14583     14586     14587     14584     14583     14586     14588
     14584     14583     14586     14589     14585     14583     14586     14587
     14585     14583     14586     14588     14585     14583     14586     14589
     14590     14592     14595     14596     14590     14592     14595     14597
     14590     14592     14595     14598     14591     14590     14592     14593
     14591     14590     14592     14594     14591     14590     14592     14595
     14592     14595     14598     14599     14592     14595     14598     14600
     14592     14595     14598     14601     14593     14592     14595     14596
     14593     14592     14595     14597     14593     14592     14595     14598
     14594     14592     14595     14596     14594     14592     14595     14597
     14594     14592     14595     14598     14595     14598     14601     14602
     14595     14598     14601     14603     14595     14598     14601     14604
     14596     14595     14598     14599     14596     14595     14598     14600
     14596     14595     14598     14601     14597     14595     14598     14599
     14597     14595     14598     14600     14597     14595     14598     14601
     14598     14601     14604     14605     14598     14601     14604     14606
     14598     14601     14604     14607     14599     14598     14601     14602
     14599     14598     14601     14603     14599     14598     14601     14604
     14600     14598     14601     14602     14600     14598     14601     14603
     14600     14598     14601     14604     14601     14604     14607     14608
     14601     14604     14607     14609     14601     14604     14607     14610
     14602     14601     14604     14605     14602     14601     14604     14606
     14602     14601     14604     14607     14603     14601     14604     14605
     14603     14601     14604     14606     14603     14601     14604     14607
     14604     14607     14610     14611     14604     14607     14610     14612
     14604     14607     14610     14613     14605     14604     14607     14608
     14605     14604     14607     14609     14605     14604     14607     14610
     14606     14604     14607     14608     14606     14604     14607     14609
     14606     14604     14607     14610     14607     14610     14613     14614
     14607     14610     14613     14615     14608     14607     14610     14611
     14608     14607     14610     14612     14608     14607     14610     14613
     14609     14607     14610     14611     14609     14607     14610     14612
     14609     14607     14610     14613     14610     14613     14615     14616
     14610     14613     14615     14617     14611     14610     14613     14614
     14611     14610     14613     14615     14612     14610     14613     14614
     14612     14610     14613     14615     14613     14615     14617     14618
     14613     14615     14617     14619     14613     14615     14617     14620
     14614     14613     14615     14616     14614     14613     14615     14617
     14615     14617     14620     14621     14615     14617     14620     14622
     14615     14617     14620     14623     14616     14615     14617     14618
     14616     14615     14617     14619     14616     14615     14617     14620
     14617     14620     14623     14624     14617     14620     14623     14625
     14617     14620     14623     14626     14618     14617     14620     14621
     14618     14617     14620     14622     14618     14617     14620     14623
     14619     14617     14620     14621     14619     14617     14620     14622
     14619     14617     14620     14623     14620     14623     14626     14627
     14620     14623     14626     14628     14620     14623     14626     14629
     14621     14620     14623     14624     14621     14620     14623     14625
     14621     14620     14623     14626     14622     14620     14623     14624
     14622     14620     14623     14625     14622     14620     14623     14626
     14623     14626     14629     14630     14623     14626     14629     14631
     14623     14626     14629     14632     14624     14623     14626     14627
     14624     14623     14626     14628     14624     14623     14626     14629
     14625     14623     14626     14627     14625     14623     14626     14628
     14625     14623     14626     14629     14626     14629     14632     14633
     14626     14629     14632     14634     14626     14629     14632     14635
     14627     14626     14629     14630     14627     14626     14629     14631
     14627     14626     14629     14632     14628     14626     14629     14630
     14628     14626     14629     14631     14628     14626     14629     14632
     14629     14632     14635     14636     14629     14632     14635     14637
     14629     14632     14635     14638     14630     14629     14632     14633
     14630     14629     14632     14634     14630     14629     14632     14635
     14631     14629     14632     14633     14631     14629     14632     14634
     14631     14629     14632     14635     14632     14635     14638     14639
     14632     14635     14638     14640     14632     14635     14638     14641
     14633     14632     14635     14636     14633     14632     14635     14637
     14633     14632     14635     14638     14634     14632     14635     14636
     14634     14632     14635     14637     14634     14632     14635     14638
     14636     14635     14638     14639     14636     14635     14638     14640
     14636     14635     14638     14641     14637     14635     14638     14639
     14637     14635     14638     14640     14637     14635     14638     14641
      2129      2133      2135      2136      2129      2133      2135      2137
      2129      2133      2138      2139      2129      2133      2138      2140
      2129      2133      2138      2144      2130      2129      2133      2134
      2130      2129      2133      2135      2130      2129      2133      2138
      2131      2129      2133      2134      2131      2129      2133      2135
      2131      2129      2133      2138      2132      2129      2133      2134
      2132      2129      2133      2135      2132      2129      2133      2138
      2133      2138      2144      2141      2134      2133      2135      2136
      2134      2133      2135      2137      2134      2133      2138      2139
      2134      2133      2138      2140      2134      2133      2138      2144
      2135      2133      2138      2139      2135      2133      2138      2140
      2135      2133      2138      2144      2136      2135      2133      2138
      2137      2135      2133      2138      2138      2144      2141      2142
      2138      2144      2141      2143      2138      2144      2141      2145
      2139      2138      2144      2141      2140      2138      2144      2141
      2141      2145      2146      2147      2141      2145      2146      2148
      2141      2145      2146      2149      2142      2141      2145      2146
      2143      2141      2145      2146      2144      2141      2145      2146
      2145      2146      2149      2150      2145      2146      2149      2151
      2145      2146      2149      2157      2146      2149      2151      2152
      2146      2149      2157      2158      2146      2149      2157      2159
      2146      2149      2157      2160      2147      2146      2149      2150
      2147      2146      2149      2151      2147      2146      2149      2157
      2148      2146      2149      2150      2148      2146      2149      2151
      2148      2146      2149      2157      2149      2151      2152      2153
      2149      2151      2152      2154      2149      2157      2160      2161
      2150      2149      2151      2152      2150      2149      2157      2158
      2150      2149      2157      2159      2150      2149      2157      2160
      2151      2149      2157      2158      2151      2149      2157      2159
      2151      2149      2157      2160      2151      2152      2154      2155
      2151      2152      2154      2156      2151      2152      2154      2166
      2152      2151      2149      2157      2152      2154      2166      2167
      2152      2154      2166      2168      2152      2154      2166      2169
      2153      2152      2154      2155      2153      2152      2154      2156
      2153      2152      2154      2166      2154      2166      2169      2170
      2154      2166      2169      2171      2154      2166      2169      2172
      2155      2154      2166      2167      2155      2154      2166      2168
      2155      2154      2166      2169      2156      2154      2166      2167
      2156      2154      2166      2168      2156      2154      2166      2169
      2157      2160      2161      2162      2157      2160      2161      2163
      2158      2157      2160      2161      2159      2157      2160      2161
      2160      2161      2163      2164      2160      2161      2163      2165
      2160      2161      2163      2213      2161      2163      2213      2214
      2161      2163      2213      2215      2161      2163      2213      2216
      2162      2161      2163      2164      2162      2161      2163      2165
      2162      2161      2163      2213      2163      2213      2216      2217
      2163      2213      2216      2218      2163      2213      2216      2219
      2164      2163      2213      2214      2164      2163      2213      2215
      2164      2163      2213      2216      2165      2163      2213      2214
      2165      2163      2213      2215      2165      2163      2213      2216
      2166      2169      2172      2173      2166      2169      2172      2174
      2167      2166      2169      2170      2167      2166      2169      2171
      2167      2166      2169      2172      2168      2166      2169      2170
      2168      2166      2169      2171      2168      2166      2169      2172
      2169      2172      2174      2175      2169      2172      2174      2176
      2170      2169      2172      2173      2170      2169      2172      2174
      2171      2169      2172      2173      2171      2169      2172      2174
      2172      2174      2176      2177      2172      2174      2176      2178
      2172      2174      2176      2179      2173      2172      2174      2175
      2173      2172      2174      2176      2174      2176      2179      2180
      2174      2176      2179      2181      2175      2174      2176      2177
      2175      2174      2176      2178      2175      2174      2176      2179
      2176      2179      2181      2182      2176      2179      2181      2183
      2177      2176      2179      2180      2177      2176      2179      2181
      2178      2176      2179      2180      2178      2176      2179      2181
      2179      2181      2183      2184      2179      2181      2183      2185
      2179      2181      2183      2186      2180      2179      2181      2182
      2180      2179      2181      2183      2181      2183      2186      2187
      2181      2183      2186      2188      2182      2181      2183      2184
      2182      2181      2183      2185      2182      2181      2183      2186
      2183      2186      2188      2189      2183      2186      2188      2190
      2184      2183      2186      2187      2184      2183      2186      2188
      2185      2183      2186      2187      2185      2183      2186      2188
      2186      2188      2190      2191      2186      2188      2190      2192
      2186      2188      2190      2193      2187      2186      2188      2189
      2187      2186      2188      2190      2188      2190      2193      2194
      2188      2190      2193      2195      2189      2188      2190      2191
      2189      2188      2190      2192      2189      2188      2190      2193
      2190      2193      2195      2196      2190      2193      2195      2197
      2191      2190      2193      2194      2191      2190      2193      2195
      2192      2190      2193      2194      2192      2190      2193      2195
      2193      2195      2197      2198      2193      2195      2197      2199
      2193      2195      2197      2200      2194      2193      2195      2196
      2194      2193      2195      2197      2195      2197      2200      2201
      2195      2197      2200      2202      2195      2197      2200      2203
      2196      2195      2197      2198      2196      2195      2197      2199
      2196      2195      2197      2200      2197      2200      2203      2204
      2197      2200      2203      2205      2197      2200      2203      2206
      2198      2197      2200      2201      2198      2197      2200      2202
      2198      2197      2200      2203      2199      2197      2200      2201
      2199      2197      2200      2202      2199      2197      2200      2203
      2200      2203      2206      2207      2200      2203      2206      2208
      2200      2203      2206      2209      2201      2200      2203      2204
      2201      2200      2203      2205      2201      2200      2203      2206
      2202      2200      2203      2204      2202      2200      2203      2205
      2202      2200      2203      2206      2203      2206      2209      2210
      2203      2206      2209      2211      2203      2206      2209      2212
      2204      2203      2206      2207      2204      2203      2206      2208
      2204      2203      2206      2209      2205      2203      2206      2207
      2205      2203      2206      2208      2205      2203      2206      2209
      2207      2206      2209      2210      2207      2206      2209      2211
      2207      2206      2209      2212      2208      2206      2209      2210
      2208      2206      2209      2211      2208      2206      2209      2212
      2213      2216      2219      2220      2213      2216      2219      2221
      2213      2216      2219      2222      2214      2213      2216      2217
      2214      2213      2216      2218      2214      2213      2216      2219
      2215      2213      2216      2217      2215      2213      2216      2218
      2215      2213      2216      2219      2216      2219      2222      2223
      2216      2219      2222      2224      2216      2219      2222      2225
      2217      2216      2219      2220      2217      2216      2219      2221
      2217      2216      2219      2222      2218      2216      2219      2220
      2218      2216      2219      2221      2218      2216      2219      2222
      2219      2222      2225      2226      2219      2222      2225      2227
      2219      2222      2225      2228      2220      2219      2222      2223
      2220      2219      2222      2224      2220      2219      2222      2225
      2221      2219      2222      2223      2221      2219      2222      2224
      2221      2219      2222      2225      2222      2225      2228      2229
      2222      2225      2228      2230      2222      2225      2228      2231
      2223      2222      2225      2226      2223      2222      2225      2227
      2223      2222      2225      2228      2224      2222      2225      2226
      2224      2222      2225      2227      2224      2222      2225      2228
      2225      2228      2231      2232      2225      2228      2231      2233
      2225      2228      2231      2234      2226      2225      2228      2229
      2226      2225      2228      2230      2226      2225      2228      2231
      2227      2225      2228      2229      2227      2225      2228      2230
      2227      2225      2228      2231      2228      2231      2234      2235
      2228      2231      2234      2236      2228      2231      2234      2237
      2229      2228      2231      2232      2229      2228      2231      2233
      2229      2228      2231      2234      2230      2228      2231      2232
      2230      2228      2231      2233      2230      2228      2231      2234
      2231      2234      2237      2238      2231      2234      2237      2239
      2231      2234      2237      2240      2232      2231      2234      2235
      2232      2231      2234      2236      2232      2231      2234      2237
      2233      2231      2234      2235      2233      2231      2234      2236
      2233      2231      2234      2237      2234      2237      2240      2241
      2234      2237      2240      2242      2234      2237      2240      2243
      2235      2234      2237      2238      2235      2234      2237      2239
      2235      2234      2237      2240      2236      2234      2237      2238
      2236      2234      2237      2239      2236      2234      2237      2240
      2237      2240      2243      2244      2237      2240      2243      2245
      2237      2240      2243      2246      2238      2237      2240      2241
      2238      2237      2240      2242      2238      2237      2240      2243
      2239      2237      2240      2241      2239      2237      2240      2242
      2239      2237      2240      2243      2240      2243      2246      2247
      2240      2243      2246      2248      2240      2243      2246      2249
      2241      2240      2243      2244      2241      2240      2243      2245
      2241      2240      2243      2246      2242      2240      2243      2244
      2242      2240      2243      2245      2242      2240      2243      2246
      2243      2246      2249      2250      2243      2246      2249      2251
      2243      2246      2249      2252      2244      2243      2246      2247
      2244      2243      2246      2248      2244      2243      2246      2249
      2245      2243      2246      2247      2245      2243      2246      2248
      2245      2243      2246      2249      2246      2249      2252      2253
      2246      2249      2252      2254      2246      2249      2252      2255
      2247      2246      2249      2250      2247      2246      2249      2251
      2247      2246      2249      2252      2248      2246      2249      2250
      2248      2246      2249      2251      2248      2246      2249      2252
      2249      2252      2255      2256      2249      2252      2255      2257
      2249      2252      2255      2258      2250      2249      2252      2253
      2250      2249      2252      2254      2250      2249      2252      2255
      2251      2249      2252      2253      2251      2249      2252      2254
      2251      2249      2252      2255      2252      2255      2258      2259
      2252      2255      2258      2260      2252      2255      2258      2261
      2253      2252      2255      2256      2253      2252      2255      2257
      2253      2252      2255      2258      2254      2252      2255      2256
      2254      2252      2255      2257      2254      2252      2255      2258
      2256      2255      2258      2259      2256      2255      2258      2260
      2256      2255      2258      2261      2257      2255      2258      2259
      2257      2255      2258      2260      2257      2255      2258      2261
      5399      5403      5406      5407      5399      5403      5406      5437
      5399      5445      5442      5437      5399      5445      5442      5443
      5399      5445      5442      5444      5400      5399      5401      5402
      5400      5399      5403      5404      5400      5399      5403      5405
      5400      5399      5403      5406      5400      5399      5445      5442
      5400      5399      5445      5446      5400      5399      5445      5447
      5401      5399      5403      5404      5401      5399      5403      5405
      5401      5399      5403      5406      5401      5399      5445      5442
      5401      5399      5445      5446      5401      5399      5445      5447
      5402      5401      5399      5403      5402      5401      5399      5445
      5403      5399      5445      5442      5403      5399      5445      5446
      5403      5399      5445      5447      5403      5406      5407      5408
      5403      5406      5407      5409      5403      5406      5437      5435
      5403      5406      5437      5438      5403      5406      5437      5442
      5404      5403      5399      5445      5404      5403      5406      5407
      5404      5403      5406      5437      5405      5403      5399      5445
      5405      5403      5406      5407      5405      5403      5406      5437
      5406      5403      5399      5445      5406      5407      5409      5410
      5406      5407      5409      5411      5406      5407      5409      5412
      5406      5437      5435      5412      5406      5437      5435      5432
      5406      5437      5435      5436      5406      5437      5438      5439
      5406      5437      5438      5440      5406      5437      5438      5441
      5406      5437      5442      5443      5406      5437      5442      5444
      5406      5437      5442      5445      5407      5406      5437      5435
      5407      5406      5437      5438      5407      5406      5437      5442
      5407      5409      5412      5413      5407      5409      5412      5414
      5407      5409      5412      5435      5408      5407      5406      5437
      5408      5407      5409      5410      5408      5407      5409      5411
      5408      5407      5409      5412      5409      5407      5406      5437
      5409      5412      5414      5415      5409      5412      5414      5416
      5409      5412      5414      5424      5409      5412      5435      5432
      5409      5412      5435      5436      5409      5412      5435      5437
      5410      5409      5412      5413      5410      5409      5412      5414
      5410      5409      5412      5435      5411      5409      5412      5413
      5411      5409      5412      5414      5411      5409      5412      5435
      5412      5414      5416      5417      5412      5414      5416      5418
      5412      5414      5416      5419      5412      5414      5424      5422
      5412      5414      5424      5425      5412      5414      5424      5429
      5412      5435      5432      5429      5412      5435      5432      5433
      5412      5435      5432      5434      5412      5435      5437      5438
      5412      5435      5437      5442      5413      5412      5414      5415
      5413      5412      5414      5416      5413      5412      5414      5424
      5413      5412      5435      5432      5413      5412      5435      5436
      5413      5412      5435      5437      5414      5412      5435      5432
      5414      5412      5435      5436      5414      5412      5435      5437
      5414      5416      5419      5420      5414      5416      5419      5421
      5414      5416      5419      5422      5414      5424      5422      5419
      5414      5424      5422      5423      5414      5424      5422      5448
      5414      5424      5425      5426      5414      5424      5425      5427
      5414      5424      5425      5428      5414      5424      5429      5430
      5414      5424      5429      5431      5414      5424      5429      5432
      5415      5414      5412      5435      5415      5414      5416      5417
      5415      5414      5416      5418      5415      5414      5416      5419
      5415      5414      5424      5422      5415      5414      5424      5425
      5415      5414      5424      5429      5416      5414      5412      5435
      5416      5414      5424      5422      5416      5414      5424      5425
      5416      5414      5424      5429      5416      5419      5422      5423
      5416      5419      5422      5424      5416      5419      5422      5448
      5417      5416      5414      5424      5417      5416      5419      5420
      5417      5416      5419      5421      5417      5416      5419      5422
      5418      5416      5414      5424      5418      5416      5419      5420
      5418      5416      5419      5421      5418      5416      5419      5422
      5419      5416      5414      5424      5419      5422      5424      5425
      5419      5422      5424      5429      5419      5422      5448      5449
      5419      5422      5448      5450      5419      5422      5448      5454
      5420      5419      5422      5423      5420      5419      5422      5424
      5420      5419      5422      5448      5421      5419      5422      5423
      5421      5419      5422      5424      5421      5419      5422      5448
      5422      5424      5425      5426      5422      5424      5425      5427
      5422      5424      5425      5428      5422      5424      5429      5430
      5422      5424      5429      5431      5422      5424      5429      5432
      5422      5448      5450      5451      5422      5448      5450      5452
      5422      5448      5450      5453      5422      5448      5454      5455
      5422      5448      5454      5456      5422      5448      5454      5457
      5423      5422      5424      5425      5423      5422      5424      5429
      5423      5422      5448      5449      5423      5422      5448      5450
      5423      5422      5448      5454      5424      5414      5412      5435
      5424      5422      5448      5449      5424      5422      5448      5450
      5424      5422      5448      5454      5424      5429      5432      5433
      5424      5429      5432      5434      5424      5429      5432      5435
      5425      5424      5422      5448      5425      5424      5429      5430
      5425      5424      5429      5431      5425      5424      5429      5432
      5426      5425      5424      5429      5427      5425      5424      5429
      5428      5425      5424      5429      5429      5424      5422      5448
      5429      5432      5435      5436      5429      5432      5435      5437
      5430      5429      5432      5433      5430      5429      5432      5434
      5430      5429      5432      5435      5431      5429      5432      5433
      5431      5429      5432      5434      5431      5429      5432      5435
      5432      5435      5437      5438      5432      5435      5437      5442
      5433      5432      5435      5436      5433      5432      5435      5437
      5434      5432      5435      5436      5434      5432      5435      5437
      5435      5437      5438      5439      5435      5437      5438      5440
      5435      5437      5438      5441      5435      5437      5442      5443
      5435      5437      5442      5444      5435      5437      5442      5445
      5436      5435      5437      5438      5436      5435      5437      5442
      5437      5442      5445      5446      5437      5442      5445      5447
      5438      5437      5442      5443      5438      5437      5442      5444
      5438      5437      5442      5445      5439      5438      5437      5442
      5440      5438      5437      5442      5441      5438      5437      5442
      5443      5442      5445      5446      5443      5442      5445      5447
      5444      5442      5445      5446      5444      5442      5445      5447
      5448      5454      5457      5458      5448      5454      5457      5459
      5448      5454      5457      5460      5449      5448      5450      5451
      5449      5448      5450      5452      5449      5448      5450      5453
      5449      5448      5454      5455      5449      5448      5454      5456
      5449      5448      5454      5457      5450      5448      5454      5455
      5450      5448      5454      5456      5450      5448      5454      5457
      5451      5450      5448      5454      5452      5450      5448      5454
      5453      5450      5448      5454      5454      5457      5460      5461
      5454      5457      5460      5462      5454      5457      5460      5463
      5455      5454      5457      5458      5455      5454      5457      5459
      5455      5454      5457      5460      5456      5454      5457      5458
      5456      5454      5457      5459      5456      5454      5457      5460
      5457      5460      5463      5464      5457      5460      5463      5465
      5457      5460      5463      5469      5458      5457      5460      5461
      5458      5457      5460      5462      5458      5457      5460      5463
      5459      5457      5460      5461      5459      5457      5460      5462
      5459      5457      5460      5463      5460      5463      5465      5466
      5460      5463      5465      5467      5460      5463      5465      5468
      5460      5463      5469      5470      5460      5463      5469      5471
      5460      5463      5469      5472      5461      5460      5463      5464
      5461      5460      5463      5465      5461      5460      5463      5469
      5462      5460      5463      5464      5462      5460      5463      5465
      5462      5460      5463      5469      5464      5463      5465      5466
      5464      5463      5465      5467      5464      5463      5465      5468
      5464      5463      5469      5470      5464      5463      5469      5471
      5464      5463      5469      5472      5465      5463      5469      5470
      5465      5463      5469      5471      5465      5463      5469      5472
      5466      5465      5463      5469      5467      5465      5463      5469
      5468      5465      5463      5469     14642     14655     14658     14659
     14642     14655     14658     14660     14642     14655     14658     14665
     14643     14642     14647     14648     14643     14642     14647     14649
     14643     14642     14647     14650     14643     14642     14651     14652
     14643     14642     14651     14653     14643     14642     14651     14654
     14643     14642     14655     14656     14643     14642     14655     14657
     14643     14642     14655     14658     14644     14643     14642     14647
     14644     14643     14642     14651     14644     14643     14642     14655
     14645     14643     14642     14647     14645     14643     14642     14651
     14645     14643     14642     14655     14646     14643     14642     14647
     14646     14643     14642     14651     14646     14643     14642     14655
     14647     14642     14651     14652     14647     14642     14651     14653
     14647     14642     14651     14654     14647     14642     14655     14656
     14647     14642     14655     14657     14647     14642     14655     14658
     14648     14647     14642     14651     14648     14647     14642     14655
     14649     14647     14642     14651     14649     14647     14642     14655
     14650     14647     14642     14651     14650     14647     14642     14655
     14651     14642     14655     14656     14651     14642     14655     14657
     14651     14642     14655     14658     14652     14651     14642     14655
     14653     14651     14642     14655     14654     14651     14642     14655
     14655     14658     14665     14661     14656     14655     14658     14659
     14656     14655     14658     14660     14656     14655     14658     14665
     14657     14655     14658     14659     14657     14655     14658     14660
     14657     14655     14658     14665     14658     14665     14661     14662
     14658     14665     14661     14663     14658     14665     14661     14664
     14659     14658     14665     14661     14660     14658     14665     14661
     14661     14664     14666     14667     14661     14664     14666     14668
     14661     14664     14666     14671     14662     14661     14664     14666
     14663     14661     14664     14666     14664     14666     14671     14669
     14664     14666     14671     14672     14664     14666     14671     14673
     14665     14661     14664     14666     14666     14671     14669     14670
     14666     14671     14669     14721     14666     14671     14673     14674
     14666     14671     14673     14675     14666     14671     14673     14677
     14667     14666     14671     14669     14667     14666     14671     14672
     14667     14666     14671     14673     14668     14666     14671     14669
     14668     14666     14671     14672     14668     14666     14671     14673
     14669     14671     14673     14674     14669     14671     14673     14675
     14669     14671     14673     14677     14669     14721     14723     14724
     14669     14721     14723     14725     14669     14721     14723     14726
     14670     14669     14671     14672     14670     14669     14671     14673
     14670     14669     14721     14722     14670     14669     14721     14723
     14671     14669     14721     14722     14671     14669     14721     14723
     14671     14673     14675     14676     14671     14673     14677     14678
     14671     14673     14677     14679     14672     14671     14669     14721
     14672     14671     14673     14674     14672     14671     14673     14675
     14672     14671     14673     14677     14673     14671     14669     14721
     14673     14677     14679     14680     14673     14677     14679     14681
     14674     14673     14675     14676     14674     14673     14677     14678
     14674     14673     14677     14679     14675     14673     14677     14678
     14675     14673     14677     14679     14676     14675     14673     14677
     14677     14679     14681     14682     14677     14679     14681     14683
     14677     14679     14681     14684     14678     14677     14679     14680
     14678     14677     14679     14681     14679     14681     14684     14685
     14679     14681     14684     14686     14679     14681     14684     14687
     14680     14679     14681     14682     14680     14679     14681     14683
     14680     14679     14681     14684     14681     14684     14687     14688
     14681     14684     14687     14689     14681     14684     14687     14690
     14682     14681     14684     14685     14682     14681     14684     14686
     14682     14681     14684     14687     14683     14681     14684     14685
     14683     14681     14684     14686     14683     14681     14684     14687
     14684     14687     14690     14691     14684     14687     14690     14692
     14684     14687     14690     14693     14685     14684     14687     14688
     14685     14684     14687     14689     14685     14684     14687     14690
     14686     14684     14687     14688     14686     14684     14687     14689
     14686     14684     14687     14690     14687     14690     14693     14694
     14687     14690     14693     14695     14687     14690     14693     14696
     14688     14687     14690     14691     14688     14687     14690     14692
     14688     14687     14690     14693     14689     14687     14690     14691
     14689     14687     14690     14692     14689     14687     14690     14693
     14690     14693     14696     14697     14690     14693     14696     14698
     14690     14693     14696     14699     14691     14690     14693     14694
     14691     14690     14693     14695     14691     14690     14693     14696
     14692     14690     14693     14694     14692     14690     14693     14695
     14692     14690     14693     14696     14693     14696     14699     14700
     14693     14696     14699     14701     14693     14696     14699     14702
     14694     14693     14696     14697     14694     14693     14696     14698
     14694     14693     14696     14699     14695     14693     14696     14697
     14695     14693     14696     14698     14695     14693     14696     14699
     14696     14699     14702     14703     14696     14699     14702     14704
     14696     14699     14702     14705     14697     14696     14699     14700
     14697     14696     14699     14701     14697     14696     14699     14702
     14698     14696     14699     14700     14698     14696     14699     14701
     14698     14696     14699     14702     14699     14702     14705     14706
     14699     14702     14705     14707     14699     14702     14705     14708
     14700     14699     14702     14703     14700     14699     14702     14704
     14700     14699     14702     14705     14701     14699     14702     14703
     14701     14699     14702     14704     14701     14699     14702     14705
     14702     14705     14708     14709     14702     14705     14708     14710
     14702     14705     14708     14711     14703     14702     14705     14706
     14703     14702     14705     14707     14703     14702     14705     14708
     14704     14702     14705     14706     14704     14702     14705     14707
     14704     14702     14705     14708     14705     14708     14711     14712
     14705     14708     14711     14713     14705     14708     14711     14714
     14706     14705     14708     14709     14706     14705     14708     14710
     14706     14705     14708     14711     14707     14705     14708     14709
     14707     14705     14708     14710     14707     14705     14708     14711
     14708     14711     14714     14715     14708     14711     14714     14716
     14708     14711     14714     14717     14709     14708     14711     14712
     14709     14708     14711     14713     14709     14708     14711     14714
     14710     14708     14711     14712     14710     14708     14711     14713
     14710     14708     14711     14714     14711     14714     14717     14718
     14711     14714     14717     14719     14711     14714     14717     14720
     14712     14711     14714     14715     14712     14711     14714     14716
     14712     14711     14714     14717     14713     14711     14714     14715
     14713     14711     14714     14716     14713     14711     14714     14717
     14715     14714     14717     14718     14715     14714     14717     14719
     14715     14714     14717     14720     14716     14714     14717     14718
     14716     14714     14717     14719     14716     14714     14717     14720
     14721     14723     14726     14727     14721     14723     14726     14728
     14721     14723     14726     14729     14722     14721     14723     14724
     14722     14721     14723     14725     14722     14721     14723     14726
     14723     14726     14729     14730     14723     14726     14729     14731
     14723     14726     14729     14732     14724     14723     14726     14727
     14724     14723     14726     14728     14724     14723     14726     14729
     14725     14723     14726     14727     14725     14723     14726     14728
     14725     14723     14726     14729     14726     14729     14732     14733
     14726     14729     14732     14734     14726     14729     14732     14735
     14727     14726     14729     14730     14727     14726     14729     14731
     14727     14726     14729     14732     14728     14726     14729     14730
     14728     14726     14729     14731     14728     14726     14729     14732
     14729     14732     14735     14736     14729     14732     14735     14737
     14729     14732     14735     14738     14730     14729     14732     14733
     14730     14729     14732     14734     14730     14729     14732     14735
     14731     14729     14732     14733     14731     14729     14732     14734
     14731     14729     14732     14735     14732     14735     14738     14739
     14732     14735     14738     14740     14732     14735     14738     14741
     14733     14732     14735     14736     14733     14732     14735     14737
     14733     14732     14735     14738     14734     14732     14735     14736
     14734     14732     14735     14737     14734     14732     14735     14738
     14735     14738     14741     14742     14735     14738     14741     14743
     14735     14738     14741     14744     14736     14735     14738     14739
     14736     14735     14738     14740     14736     14735     14738     14741
     14737     14735     14738     14739     14737     14735     14738     14740
     14737     14735     14738     14741     14738     14741     14744     14745
     14738     14741     14744     14746     14739     14738     14741     14742
     14739     14738     14741     14743     14739     14738     14741     14744
     14740     14738     14741     14742     14740     14738     14741     14743
     14740     14738     14741     14744     14741     14744     14746     14747
     14741     14744     14746     14748     14742     14741     14744     14745
     14742     14741     14744     14746     14743     14741     14744     14745
     14743     14741     14744     14746     14744     14746     14748     14749
     14744     14746     14748     14750     14744     14746     14748     14751
     14745     14744     14746     14747     14745     14744     14746     14748
     14746     14748     14751     14752     14746     14748     14751     14753
     14746     14748     14751     14754     14747     14746     14748     14749
     14747     14746     14748     14750     14747     14746     14748     14751
     14748     14751     14754     14755     14748     14751     14754     14756
     14748     14751     14754     14757     14749     14748     14751     14752
     14749     14748     14751     14753     14749     14748     14751     14754
     14750     14748     14751     14752     14750     14748     14751     14753
     14750     14748     14751     14754     14751     14754     14757     14758
     14751     14754     14757     14759     14751     14754     14757     14760
     14752     14751     14754     14755     14752     14751     14754     14756
     14752     14751     14754     14757     14753     14751     14754     14755
     14753     14751     14754     14756     14753     14751     14754     14757
     14754     14757     14760     14761     14754     14757     14760     14762
     14754     14757     14760     14763     14755     14754     14757     14758
     14755     14754     14757     14759     14755     14754     14757     14760
     14756     14754     14757     14758     14756     14754     14757     14759
     14756     14754     14757     14760     14757     14760     14763     14764
     14757     14760     14763     14765     14757     14760     14763     14766
     14758     14757     14760     14761     14758     14757     14760     14762
     14758     14757     14760     14763     14759     14757     14760     14761
     14759     14757     14760     14762     14759     14757     14760     14763
     14760     14763     14766     14767     14760     14763     14766     14768
     14760     14763     14766     14769     14761     14760     14763     14764
     14761     14760     14763     14765     14761     14760     14763     14766
     14762     14760     14763     14764     14762     14760     14763     14765
     14762     14760     14763     14766     14763     14766     14769     14770
     14763     14766     14769     14771     14763     14766     14769     14772
     14764     14763     14766     14767     14764     14763     14766     14768
     14764     14763     14766     14769     14765     14763     14766     14767
     14765     14763     14766     14768     14765     14763     14766     14769
     14767     14766     14769     14770     14767     14766     14769     14771
     14767     14766     14769     14772     14768     14766     14769     14770
     14768     14766     14769     14771     14768     14766     14769     14772
     18048     18052     18055     18056     18048     18052     18055     18057
     18048     18052     18055     18061     18049     18048     18052     18053
     18049     18048     18052     18054     18049     18048     18052     18055
     18050     18048     18052     18053     18050     18048     18052     18054
     18050     18048     18052     18055     18051     18048     18052     18053
     18051     18048     18052     18054     18051     18048     18052     18055
     18052     18055     18061     18058     18053     18052     18055     18056
     18053     18052     18055     18057     18053     18052     18055     18061
     18054     18052     18055     18056     18054     18052     18055     18057
     18054     18052     18055     18061     18055     18061     18058     18059
     18055     18061     18058     18060     18055     18061     18058     18062
     18056     18055     18061     18058     18057     18055     18061     18058
     18058     18062     18063     18064     18058     18062     18063     18065
     18058     18062     18063     18066     18059     18058     18062     18063
     18060     18058     18062     18063     18061     18058     18062     18063
     18062     18063     18066     18067     18062     18063     18066     18068
     18062     18063     18066     18074     18063     18066     18068     18069
     18063     18066     18074     18075     18063     18066     18074     18076
     18063     18066     18074     18077     18064     18063     18066     18067
     18064     18063     18066     18068     18064     18063     18066     18074
     18065     18063     18066     18067     18065     18063     18066     18068
     18065     18063     18066     18074     18066     18068     18069     18070
     18066     18068     18069     18071     18066     18074     18077     18078
     18067     18066     18068     18069     18067     18066     18074     18075
     18067     18066     18074     18076     18067     18066     18074     18077
     18068     18066     18074     18075     18068     18066     18074     18076
     18068     18066     18074     18077     18068     18069     18071     18072
     18068     18069     18071     18073     18068     18069     18071     18083
     18069     18068     18066     18074     18069     18071     18083     18084
     18069     18071     18083     18085     18069     18071     18083     18086
     18070     18069     18071     18072     18070     18069     18071     18073
     18070     18069     18071     18083     18071     18083     18086     18087
     18071     18083     18086     18088     18071     18083     18086     18089
     18072     18071     18083     18084     18072     18071     18083     18085
     18072     18071     18083     18086     18073     18071     18083     18084
     18073     18071     18083     18085     18073     18071     18083     18086
     18074     18077     18078     18079     18074     18077     18078     18080
     18075     18074     18077     18078     18076     18074     18077     18078
     18077     18078     18080     18081     18077     18078     18080     18082
     18077     18078     18080     18130     18078     18080     18130     18131
     18078     18080     18130     18132     18078     18080     18130     18133
     18079     18078     18080     18081     18079     18078     18080     18082
     18079     18078     18080     18130     18080     18130     18133     18134
     18080     18130     18133     18135     18080     18130     18133     18136
     18081     18080     18130     18131     18081     18080     18130     18132
     18081     18080     18130     18133     18082     18080     18130     18131
     18082     18080     18130     18132     18082     18080     18130     18133
     18083     18086     18089     18090     18083     18086     18089     18091
     18084     18083     18086     18087     18084     18083     18086     18088
     18084     18083     18086     18089     18085     18083     18086     18087
     18085     18083     18086     18088     18085     18083     18086     18089
     18086     18089     18091     18092     18086     18089     18091     18093
     18087     18086     18089     18090     18087     18086     18089     18091
     18088     18086     18089     18090     18088     18086     18089     18091
     18089     18091     18093     18094     18089     18091     18093     18095
     18089     18091     18093     18096     18090     18089     18091     18092
     18090     18089     18091     18093     18091     18093     18096     18097
     18091     18093     18096     18098     18092     18091     18093     18094
     18092     18091     18093     18095     18092     18091     18093     18096
     18093     18096     18098     18099     18093     18096     18098     18100
     18094     18093     18096     18097     18094     18093     18096     18098
     18095     18093     18096     18097     18095     18093     18096     18098
     18096     18098     18100     18101     18096     18098     18100     18102
     18096     18098     18100     18103     18097     18096     18098     18099
     18097     18096     18098     18100     18098     18100     18103     18104
     18098     18100     18103     18105     18099     18098     18100     18101
     18099     18098     18100     18102     18099     18098     18100     18103
     18100     18103     18105     18106     18100     18103     18105     18107
     18101     18100     18103     18104     18101     18100     18103     18105
     18102     18100     18103     18104     18102     18100     18103     18105
     18103     18105     18107     18108     18103     18105     18107     18109
     18103     18105     18107     18110     18104     18103     18105     18106
     18104     18103     18105     18107     18105     18107     18110     18111
     18105     18107     18110     18112     18106     18105     18107     18108
     18106     18105     18107     18109     18106     18105     18107     18110
     18107     18110     18112     18113     18107     18110     18112     18114
     18108     18107     18110     18111     18108     18107     18110     18112
     18109     18107     18110     18111     18109     18107     18110     18112
     18110     18112     18114     18115     18110     18112     18114     18116
     18110     18112     18114     18117     18111     18110     18112     18113
     18111     18110     18112     18114     18112     18114     18117     18118
     18112     18114     18117     18119     18112     18114     18117     18120
     18113     18112     18114     18115     18113     18112     18114     18116
     18113     18112     18114     18117     18114     18117     18120     18121
     18114     18117     18120     18122     18114     18117     18120     18123
     18115     18114     18117     18118     18115     18114     18117     18119
     18115     18114     18117     18120     18116     18114     18117     18118
     18116     18114     18117     18119     18116     18114     18117     18120
     18117     18120     18123     18124     18117     18120     18123     18125
     18117     18120     18123     18126     18118     18117     18120     18121
     18118     18117     18120     18122     18118     18117     18120     18123
     18119     18117     18120     18121     18119     18117     18120     18122
     18119     18117     18120     18123     18120     18123     18126     18127
     18120     18123     18126     18128     18120     18123     18126     18129
     18121     18120     18123     18124     18121     18120     18123     18125
     18121     18120     18123     18126     18122     18120     18123     18124
     18122     18120     18123     18125     18122     18120     18123     18126
     18124     18123     18126     18127     18124     18123     18126     18128
     18124     18123     18126     18129     18125     18123     18126     18127
     18125     18123     18126     18128     18125     18123     18126     18129
     18130     18133     18136     18137     18130     18133     18136     18138
     18130     18133     18136     18139     18131     18130     18133     18134
     18131     18130     18133     18135     18131     18130     18133     18136
     18132     18130     18133     18134     18132     18130     18133     18135
     18132     18130     18133     18136     18133     18136     18139     18140
     18133     18136     18139     18141     18133     18136     18139     18142
     18134     18133     18136     18137     18134     18133     18136     18138
     18134     18133     18136     18139     18135     18133     18136     18137
     18135     18133     18136     18138     18135     18133     18136     18139
     18136     18139     18142     18143     18136     18139     18142     18144
     18136     18139     18142     18145     18137     18136     18139     18140
     18137     18136     18139     18141     18137     18136     18139     18142
     18138     18136     18139     18140     18138     18136     18139     18141
     18138     18136     18139     18142     18139     18142     18145     18146
     18139     18142     18145     18147     18139     18142     18145     18148
     18140     18139     18142     18143     18140     18139     18142     18144
     18140     18139     18142     18145     18141     18139     18142     18143
     18141     18139     18142     18144     18141     18139     18142     18145
     18142     18145     18148     18149     18142     18145     18148     18150
     18142     18145     18148     18151     18143     18142     18145     18146
     18143     18142     18145     18147     18143     18142     18145     18148
     18144     18142     18145     18146     18144     18142     18145     18147
     18144     18142     18145     18148     18145     18148     18151     18152
     18145     18148     18151     18153     18145     18148     18151     18154
     18146     18145     18148     18149     18146     18145     18148     18150
     18146     18145     18148     18151     18147     18145     18148     18149
     18147     18145     18148     18150     18147     18145     18148     18151
     18148     18151     18154     18155     18148     18151     18154     18156
     18148     18151     18154     18157     18149     18148     18151     18152
     18149     18148     18151     18153     18149     18148     18151     18154
     18150     18148     18151     18152     18150     18148     18151     18153
     18150     18148     18151     18154     18151     18154     18157     18158
     18151     18154     18157     18159     18151     18154     18157     18160
     18152     18151     18154     18155     18152     18151     18154     18156
     18152     18151     18154     18157     18153     18151     18154     18155
     18153     18151     18154     18156     18153     18151     18154     18157
     18154     18157     18160     18161     18154     18157     18160     18162
     18154     18157     18160     18163     18155     18154     18157     18158
     18155     18154     18157     18159     18155     18154     18157     18160
     18156     18154     18157     18158     18156     18154     18157     18159
     18156     18154     18157     18160     18157     18160     18163     18164
     18157     18160     18163     18165     18157     18160     18163     18166
     18158     18157     18160     18161     18158     18157     18160     18162
     18158     18157     18160     18163     18159     18157     18160     18161
     18159     18157     18160     18162     18159     18157     18160     18163
     18160     18163     18166     18167     18160     18163     18166     18168
     18160     18163     18166     18169     18161     18160     18163     18164
     18161     18160     18163     18165     18161     18160     18163     18166
     18162     18160     18163     18164     18162     18160     18163     18165
     18162     18160     18163     18166     18163     18166     18169     18170
     18163     18166     18169     18171     18163     18166     18169     18172
     18164     18163     18166     18167     18164     18163     18166     18168
     18164     18163     18166     18169     18165     18163     18166     18167
     18165     18163     18166     18168     18165     18163     18166     18169
     18166     18169     18172     18173     18166     18169     18172     18174
     18166     18169     18172     18175     18167     18166     18169     18170
     18167     18166     18169     18171     18167     18166     18169     18172
     18168     18166     18169     18170     18168     18166     18169     18171
     18168     18166     18169     18172     18169     18172     18175     18176
     18169     18172     18175     18177     18169     18172     18175     18178
     18170     18169     18172     18173     18170     18169     18172     18174
     18170     18169     18172     18175     18171     18169     18172     18173
     18171     18169     18172     18174     18171     18169     18172     18175
     18173     18172     18175     18176     18173     18172     18175     18177
     18173     18172     18175     18178     18174     18172     18175     18176
     18174     18172     18175     18177     18174     18172     18175     18178
     20731     20744     20747     20748     20731     20744     20747     20749
     20731     20744     20747     20753     20732     20731     20736     20737
     20732     20731     20736     20738     20732     20731     20736     20739
     20732     20731     20740     20741     20732     20731     20740     20742
     20732     20731     20740     20743     20732     20731     20744     20745
     20732     20731     20744     20746     20732     20731     20744     20747
     20733     20732     20731     20736     20733     20732     20731     20740
     20733     20732     20731     20744     20734     20732     20731     20736
     20734     20732     20731     20740     20734     20732     20731     20744
     20735     20732     20731     20736     20735     20732     20731     20740
     20735     20732     20731     20744     20736     20731     20740     20741
     20736     20731     20740     20742     20736     20731     20740     20743
     20736     20731     20744     20745     20736     20731     20744     20746
     20736     20731     20744     20747     20737     20736     20731     20740
     20737     20736     20731     20744     20738     20736     20731     20740
     20738     20736     20731     20744     20739     20736     20731     20740
     20739     20736     20731     20744     20740     20731     20744     20745
     20740     20731     20744     20746     20740     20731     20744     20747
     20741     20740     20731     20744     20742     20740     20731     20744
     20743     20740     20731     20744     20744     20747     20753     20750
     20745     20744     20747     20748     20745     20744     20747     20749
     20745     20744     20747     20753     20746     20744     20747     20748
     20746     20744     20747     20749     20746     20744     20747     20753
     20747     20753     20750     20751     20747     20753     20750     20752
     20747     20753     20750     20754     20748     20747     20753     20750
     20749     20747     20753     20750     20750     20754     20755     20756
     20750     20754     20755     20757     20750     20754     20755     20758
     20751     20750     20754     20755     20752     20750     20754     20755
     20753     20750     20754     20755     20754     20755     20758     20759
     20754     20755     20758     20760     20754     20755     20758     20766
     20755     20758     20760     20761     20755     20758     20766     20767
     20755     20758     20766     20768     20755     20758     20766     20769
     20756     20755     20758     20759     20756     20755     20758     20760
     20756     20755     20758     20766     20757     20755     20758     20759
     20757     20755     20758     20760     20757     20755     20758     20766
     20758     20760     20761     20762     20758     20760     20761     20763
     20758     20766     20769     20770     20759     20758     20760     20761
     20759     20758     20766     20767     20759     20758     20766     20768
     20759     20758     20766     20769     20760     20758     20766     20767
     20760     20758     20766     20768     20760     20758     20766     20769
     20760     20761     20763     20764     20760     20761     20763     20765
     20760     20761     20763     20775     20761     20760     20758     20766
     20761     20763     20775     20776     20761     20763     20775     20777
     20761     20763     20775     20778     20762     20761     20763     20764
     20762     20761     20763     20765     20762     20761     20763     20775
     20763     20775     20778     20779     20763     20775     20778     20780
     20763     20775     20778     20781     20764     20763     20775     20776
     20764     20763     20775     20777     20764     20763     20775     20778
     20765     20763     20775     20776     20765     20763     20775     20777
     20765     20763     20775     20778     20766     20769     20770     20771
     20766     20769     20770     20772     20767     20766     20769     20770
     20768     20766     20769     20770     20769     20770     20772     20773
     20769     20770     20772     20774     20769     20770     20772     20820
     20770     20772     20820     20821     20770     20772     20820     20822
     20770     20772     20820     20823     20771     20770     20772     20773
     20771     20770     20772     20774     20771     20770     20772     20820
     20772     20820     20823     20824     20772     20820     20823     20825
     20772     20820     20823     20826     20773     20772     20820     20821
     20773     20772     20820     20822     20773     20772     20820     20823
     20774     20772     20820     20821     20774     20772     20820     20822
     20774     20772     20820     20823     20775     20778     20781     20782
     20775     20778     20781     20783     20775     20778     20781     20784
     20776     20775     20778     20779     20776     20775     20778     20780
     20776     20775     20778     20781     20777     20775     20778     20779
     20777     20775     20778     20780     20777     20775     20778     20781
     20778     20781     20784     20785     20778     20781     20784     20786
     20778     20781     20784     20787     20779     20778     20781     20782
     20779     20778     20781     20783     20779     20778     20781     20784
     20780     20778     20781     20782     20780     20778     20781     20783
     20780     20778     20781     20784     20781     20784     20787     20788
     20781     20784     20787     20789     20781     20784     20787     20790
     20782     20781     20784     20785     20782     20781     20784     20786
     20782     20781     20784     20787     20783     20781     20784     20785
     20783     20781     20784     20786     20783     20781     20784     20787
     20784     20787     20790     20791     20784     20787     20790     20792
     20784     20787     20790     20793     20785     20784     20787     20788
     20785     20784     20787     20789     20785     20784     20787     20790
     20786     20784     20787     20788     20786     20784     20787     20789
     20786     20784     20787     20790     20787     20790     20793     20794
     20787     20790     20793     20795     20788     20787     20790     20791
     20788     20787     20790     20792     20788     20787     20790     20793
     20789     20787     20790     20791     20789     20787     20790     20792
     20789     20787     20790     20793     20790     20793     20795     20796
     20790     20793     20795     20797     20791     20790     20793     20794
     20791     20790     20793     20795     20792     20790     20793     20794
     20792     20790     20793     20795     20793     20795     20797     20798
     20793     20795     20797     20799     20793     20795     20797     20800
     20794     20793     20795     20796     20794     20793     20795     20797
     20795     20797     20800     20801     20795     20797     20800     20802
     20796     20795     20797     20798     20796     20795     20797     20799
     20796     20795     20797     20800     20797     20800     20802     20803
     20797     20800     20802     20804     20798     20797     20800     20801
     20798     20797     20800     20802     20799     20797     20800     20801
     20799     20797     20800     20802     20800     20802     20804     20805
     20800     20802     20804     20806     20800     20802     20804     20807
     20801     20800     20802     20803     20801     20800     20802     20804
     20802     20804     20807     20808     20802     20804     20807     20809
     20802     20804     20807     20810     20803     20802     20804     20805
     20803     20802     20804     20806     20803     20802     20804     20807
     20804     20807     20810     20811     20804     20807     20810     20812
     20804     20807     20810     20813     20805     20804     20807     20808
     20805     20804     20807     20809     20805     20804     20807     20810
     20806     20804     20807     20808     20806     20804     20807     20809
     20806     20804     20807     20810     20807     20810     20813     20814
     20807     20810     20813     20815     20807     20810     20813     20816
     20808     20807     20810     20811     20808     20807     20810     20812
     20808     20807     20810     20813     20809     20807     20810     20811
     20809     20807     20810     20812     20809     20807     20810     20813
     20810     20813     20816     20817     20810     20813     20816     20818
     20810     20813     20816     20819     20811     20810     20813     20814
     20811     20810     20813     20815     20811     20810     20813     20816
     20812     20810     20813     20814     20812     20810     20813     20815
     20812     20810     20813     20816     20814     20813     20816     20817
     20814     20813     20816     20818     20814     20813     20816     20819
     20815     20813     20816     20817     20815     20813     20816     20818
     20815     20813     20816     20819     20820     20823     20826     20827
     20820     20823     20826     20828     20820     20823     20826     20829
     20821     20820     20823     20824     20821     20820     20823     20825
     20821     20820     20823     20826     20822     20820     20823     20824
     20822     20820     20823     20825     20822     20820     20823     20826
     20823     20826     20829     20830     20823     20826     20829     20831
     20823     20826     20829     20832     20824     20823     20826     20827
     20824     20823     20826     20828     20824     20823     20826     20829
     20825     20823     20826     20827     20825     20823     20826     20828
     20825     20823     20826     20829     20826     20829     20832     20833
     20826     20829     20832     20834     20826     20829     20832     20835
     20827     20826     20829     20830     20827     20826     20829     20831
     20827     20826     20829     20832     20828     20826     20829     20830
     20828     20826     20829     20831     20828     20826     20829     20832
     20829     20832     20835     20836     20829     20832     20835     20837
     20829     20832     20835     20838     20830     20829     20832     20833
     20830     20829     20832     20834     20830     20829     20832     20835
     20831     20829     20832     20833     20831     20829     20832     20834
     20831     20829     20832     20835     20832     20835     20838     20839
     20832     20835     20838     20840     20832     20835     20838     20841
     20833     20832     20835     20836     20833     20832     20835     20837
     20833     20832     20835     20838     20834     20832     20835     20836
     20834     20832     20835     20837     20834     20832     20835     20838
     20835     20838     20841     20842     20835     20838     20841     20843
     20835     20838     20841     20844     20836     20835     20838     20839
     20836     20835     20838     20840     20836     20835     20838     20841
     20837     20835     20838     20839     20837     20835     20838     20840
     20837     20835     20838     20841     20838     20841     20844     20845
     20838     20841     20844     20846     20838     20841     20844     20847
     20839     20838     20841     20842     20839     20838     20841     20843
     20839     20838     20841     20844     20840     20838     20841     20842
     20840     20838     20841     20843     20840     20838     20841     20844
     20841     20844     20847     20848     20841     20844     20847     20849
     20841     20844     20847     20850     20842     20841     20844     20845
     20842     20841     20844     20846     20842     20841     20844     20847
     20843     20841     20844     20845     20843     20841     20844     20846
     20843     20841     20844     20847     20844     20847     20850     20851
     20844     20847     20850     20852     20844     20847     20850     20853
     20845     20844     20847     20848     20845     20844     20847     20849
     20845     20844     20847     20850     20846     20844     20847     20848
     20846     20844     20847     20849     20846     20844     20847     20850
     20847     20850     20853     20854     20847     20850     20853     20855
     20847     20850     20853     20856     20848     20847     20850     20851
     20848     20847     20850     20852     20848     20847     20850     20853
     20849     20847     20850     20851     20849     20847     20850     20852
     20849     20847     20850     20853     20850     20853     20856     20857
     20850     20853     20856     20858     20850     20853     20856     20859
     20851     20850     20853     20854     20851     20850     20853     20855
     20851     20850     20853     20856     20852     20850     20853     20854
     20852     20850     20853     20855     20852     20850     20853     20856
     20853     20856     20859     20860     20853     20856     20859     20861
     20853     20856     20859     20862     20854     20853     20856     20857
     20854     20853     20856     20858     20854     20853     20856     20859
     20855     20853     20856     20857     20855     20853     20856     20858
     20855     20853     20856     20859     20856     20859     20862     20863
     20856     20859     20862     20864     20856     20859     20862     20865
     20857     20856     20859     20860     20857     20856     20859     20861
     20857     20856     20859     20862     20858     20856     20859     20860
     20858     20856     20859     20861     20858     20856     20859     20862
     20859     20862     20865     20866     20859     20862     20865     20867
     20859     20862     20865     20868     20860     20859     20862     20863
     20860     20859     20862     20864     20860     20859     20862     20865
     20861     20859     20862     20863     20861     20859     20862     20864
     20861     20859     20862     20865     20863     20862     20865     20866
     20863     20862     20865     20867     20863     20862     20865     20868
     20864     20862     20865     20866     20864     20862     20865     20867
     20864     20862     20865     20868     14773     14786     14789     14790
     14773     14786     14789     14791     14773     14786     14789     14796
     14774     14773     14778     14779     14774     14773     14778     14780
     14774     14773     14778     14781     14774     14773     14782     14783
     14774     14773     14782     14784     14774     14773     14782     14785
     14774     14773     14786     14787     14774     14773     14786     14788
     14774     14773     14786     14789     14775     14774     14773     14778
     14775     14774     14773     14782     14775     14774     14773     14786
     14776     14774     14773     14778     14776     14774     14773     14782
     14776     14774     14773     14786     14777     14774     14773     14778
     14777     14774     14773     14782     14777     14774     14773     14786
     14778     14773     14782     14783     14778     14773     14782     14784
     14778     14773     14782     14785     14778     14773     14786     14787
     14778     14773     14786     14788     14778     14773     14786     14789
     14779     14778     14773     14782     14779     14778     14773     14786
     14780     14778     14773     14782     14780     14778     14773     14786
     14781     14778     14773     14782     14781     14778     14773     14786
     14782     14773     14786     14787     14782     14773     14786     14788
     14782     14773     14786     14789     14783     14782     14773     14786
     14784     14782     14773     14786     14785     14782     14773     14786
     14786     14789     14796     14792     14787     14786     14789     14790
     14787     14786     14789     14791     14787     14786     14789     14796
     14788     14786     14789     14790     14788     14786     14789     14791
     14788     14786     14789     14796     14789     14796     14792     14793
     14789     14796     14792     14794     14789     14796     14792     14795
     14790     14789     14796     14792     14791     14789     14796     14792
     14792     14795     14797     14798     14792     14795     14797     14799
     14792     14795     14797     14802     14793     14792     14795     14797
     14794     14792     14795     14797     14795     14797     14802     14800
     14795     14797     14802     14803     14795     14797     14802     14804
     14796     14792     14795     14797     14797     14802     14800     14801
     14797     14802     14800     14852     14797     14802     14804     14805
     14797     14802     14804     14806     14797     14802     14804     14808
     14798     14797     14802     14800     14798     14797     14802     14803
     14798     14797     14802     14804     14799     14797     14802     14800
     14799     14797     14802     14803     14799     14797     14802     14804
     14800     14802     14804     14805     14800     14802     14804     14806
     14800     14802     14804     14808     14800     14852     14854     14855
     14800     14852     14854     14856     14800     14852     14854     14857
     14801     14800     14802     14803     14801     14800     14802     14804
     14801     14800     14852     14853     14801     14800     14852     14854
     14802     14800     14852     14853     14802     14800     14852     14854
     14802     14804     14806     14807     14802     14804     14808     14809
     14802     14804     14808     14810     14803     14802     14800     14852
     14803     14802     14804     14805     14803     14802     14804     14806
     14803     14802     14804     14808     14804     14802     14800     14852
     14804     14808     14810     14811     14804     14808     14810     14812
     14805     14804     14806     14807     14805     14804     14808     14809
     14805     14804     14808     14810     14806     14804     14808     14809
     14806     14804     14808     14810     14807     14806     14804     14808
     14808     14810     14812     14813     14808     14810     14812     14814
     14808     14810     14812     14815     14809     14808     14810     14811
     14809     14808     14810     14812     14810     14812     14815     14816
     14810     14812     14815     14817     14810     14812     14815     14818
     14811     14810     14812     14813     14811     14810     14812     14814
     14811     14810     14812     14815     14812     14815     14818     14819
     14812     14815     14818     14820     14812     14815     14818     14821
     14813     14812     14815     14816     14813     14812     14815     14817
     14813     14812     14815     14818     14814     14812     14815     14816
     14814     14812     14815     14817     14814     14812     14815     14818
     14815     14818     14821     14822     14815     14818     14821     14823
     14815     14818     14821     14824     14816     14815     14818     14819
     14816     14815     14818     14820     14816     14815     14818     14821
     14817     14815     14818     14819     14817     14815     14818     14820
     14817     14815     14818     14821     14818     14821     14824     14825
     14818     14821     14824     14826     14818     14821     14824     14827
     14819     14818     14821     14822     14819     14818     14821     14823
     14819     14818     14821     14824     14820     14818     14821     14822
     14820     14818     14821     14823     14820     14818     14821     14824
     14821     14824     14827     14828     14821     14824     14827     14829
     14821     14824     14827     14830     14822     14821     14824     14825
     14822     14821     14824     14826     14822     14821     14824     14827
     14823     14821     14824     14825     14823     14821     14824     14826
     14823     14821     14824     14827     14824     14827     14830     14831
     14824     14827     14830     14832     14824     14827     14830     14833
     14825     14824     14827     14828     14825     14824     14827     14829
     14825     14824     14827     14830     14826     14824     14827     14828
     14826     14824     14827     14829     14826     14824     14827     14830
     14827     14830     14833     14834     14827     14830     14833     14835
     14827     14830     14833     14836     14828     14827     14830     14831
     14828     14827     14830     14832     14828     14827     14830     14833
     14829     14827     14830     14831     14829     14827     14830     14832
     14829     14827     14830     14833     14830     14833     14836     14837
     14830     14833     14836     14838     14830     14833     14836     14839
     14831     14830     14833     14834     14831     14830     14833     14835
     14831     14830     14833     14836     14832     14830     14833     14834
     14832     14830     14833     14835     14832     14830     14833     14836
     14833     14836     14839     14840     14833     14836     14839     14841
     14833     14836     14839     14842     14834     14833     14836     14837
     14834     14833     14836     14838     14834     14833     14836     14839
     14835     14833     14836     14837     14835     14833     14836     14838
     14835     14833     14836     14839     14836     14839     14842     14843
     14836     14839     14842     14844     14836     14839     14842     14845
     14837     14836     14839     14840     14837     14836     14839     14841
     14837     14836     14839     14842     14838     14836     14839     14840
     14838     14836     14839     14841     14838     14836     14839     14842
     14839     14842     14845     14846     14839     14842     14845     14847
     14839     14842     14845     14848     14840     14839     14842     14843
     14840     14839     14842     14844     14840     14839     14842     14845
     14841     14839     14842     14843     14841     14839     14842     14844
     14841     14839     14842     14845     14842     14845     14848     14849
     14842     14845     14848     14850     14842     14845     14848     14851
     14843     14842     14845     14846     14843     14842     14845     14847
     14843     14842     14845     14848     14844     14842     14845     14846
     14844     14842     14845     14847     14844     14842     14845     14848
     14846     14845     14848     14849     14846     14845     14848     14850
     14846     14845     14848     14851     14847     14845     14848     14849
     14847     14845     14848     14850     14847     14845     14848     14851
     14852     14854     14857     14858     14852     14854     14857     14859
     14852     14854     14857     14860     14853     14852     14854     14855
     14853     14852     14854     14856     14853     14852     14854     14857
     14854     14857     14860     14861     14854     14857     14860     14862
     14854     14857     14860     14863     14855     14854     14857     14858
     14855     14854     14857     14859     14855     14854     14857     14860
     14856     14854     14857     14858     14856     14854     14857     14859
     14856     14854     14857     14860     14857     14860     14863     14864
     14857     14860     14863     14865     14857     14860     14863     14866
     14858     14857     14860     14861     14858     14857     14860     14862
     14858     14857     14860     14863     14859     14857     14860     14861
     14859     14857     14860     14862     14859     14857     14860     14863
     14860     14863     14866     14867     14860     14863     14866     14868
     14860     14863     14866     14869     14861     14860     14863     14864
     14861     14860     14863     14865     14861     14860     14863     14866
     14862     14860     14863     14864     14862     14860     14863     14865
     14862     14860     14863     14866     14863     14866     14869     14870
     14863     14866     14869     14871     14863     14866     14869     14872
     14864     14863     14866     14867     14864     14863     14866     14868
     14864     14863     14866     14869     14865     14863     14866     14867
     14865     14863     14866     14868     14865     14863     14866     14869
     14866     14869     14872     14873     14866     14869     14872     14874
     14866     14869     14872     14875     14867     14866     14869     14870
     14867     14866     14869     14871     14867     14866     14869     14872
     14868     14866     14869     14870     14868     14866     14869     14871
     14868     14866     14869     14872     14869     14872     14875     14876
     14869     14872     14875     14877     14870     14869     14872     14873
     14870     14869     14872     14874     14870     14869     14872     14875
     14871     14869     14872     14873     14871     14869     14872     14874
     14871     14869     14872     14875     14872     14875     14877     14878
     14872     14875     14877     14879     14873     14872     14875     14876
     14873     14872     14875     14877     14874     14872     14875     14876
     14874     14872     14875     14877     14875     14877     14879     14880
     14875     14877     14879     14881     14875     14877     14879     14882
     14876     14875     14877     14878     14876     14875     14877     14879
     14877     14879     14882     14883     14877     14879     14882     14884
     14877     14879     14882     14885     14878     14877     14879     14880
     14878     14877     14879     14881     14878     14877     14879     14882
     14879     14882     14885     14886     14879     14882     14885     14887
     14879     14882     14885     14888     14880     14879     14882     14883
     14880     14879     14882     14884     14880     14879     14882     14885
     14881     14879     14882     14883     14881     14879     14882     14884
     14881     14879     14882     14885     14882     14885     14888     14889
     14882     14885     14888     14890     14882     14885     14888     14891
     14883     14882     14885     14886     14883     14882     14885     14887
     14883     14882     14885     14888     14884     14882     14885     14886
     14884     14882     14885     14887     14884     14882     14885     14888
     14885     14888     14891     14892     14885     14888     14891     14893
     14885     14888     14891     14894     14886     14885     14888     14889
     14886     14885     14888     14890     14886     14885     14888     14891
     14887     14885     14888     14889     14887     14885     14888     14890
     14887     14885     14888     14891     14888     14891     14894     14895
     14888     14891     14894     14896     14888     14891     14894     14897
     14889     14888     14891     14892     14889     14888     14891     14893
     14889     14888     14891     14894     14890     14888     14891     14892
     14890     14888     14891     14893     14890     14888     14891     14894
     14891     14894     14897     14898     14891     14894     14897     14899
     14891     14894     14897     14900     14892     14891     14894     14895
     14892     14891     14894     14896     14892     14891     14894     14897
     14893     14891     14894     14895     14893     14891     14894     14896
     14893     14891     14894     14897     14894     14897     14900     14901
     14894     14897     14900     14902     14894     14897     14900     14903
     14895     14894     14897     14898     14895     14894     14897     14899
     14895     14894     14897     14900     14896     14894     14897     14898
     14896     14894     14897     14899     14896     14894     14897     14900
     14898     14897     14900     14901     14898     14897     14900     14902
     14898     14897     14900     14903     14899     14897     14900     14901
     14899     14897     14900     14902     14899     14897     14900     14903
      5473      5477      5480      5481      5473      5477      5480      5511
      5473      5519      5516      5511      5473      5519      5516      5517
      5473      5519      5516      5518      5474      5473      5475      5476
      5474      5473      5477      5478      5474      5473      5477      5479
      5474      5473      5477      5480      5474      5473      5519      5516
      5474      5473      5519      5520      5474      5473      5519      5521
      5475      5473      5477      5478      5475      5473      5477      5479
      5475      5473      5477      5480      5475      5473      5519      5516
      5475      5473      5519      5520      5475      5473      5519      5521
      5476      5475      5473      5477      5476      5475      5473      5519
      5477      5473      5519      5516      5477      5473      5519      5520
      5477      5473      5519      5521      5477      5480      5481      5482
      5477      5480      5481      5483      5477      5480      5511      5509
      5477      5480      5511      5512      5477      5480      5511      5516
      5478      5477      5473      5519      5478      5477      5480      5481
      5478      5477      5480      5511      5479      5477      5473      5519
      5479      5477      5480      5481      5479      5477      5480      5511
      5480      5477      5473      5519      5480      5481      5483      5484
      5480      5481      5483      5485      5480      5481      5483      5486
      5480      5511      5509      5486      5480      5511      5509      5506
      5480      5511      5509      5510      5480      5511      5512      5513
      5480      5511      5512      5514      5480      5511      5512      5515
      5480      5511      5516      5517      5480      5511      5516      5518
      5480      5511      5516      5519      5481      5480      5511      5509
      5481      5480      5511      5512      5481      5480      5511      5516
      5481      5483      5486      5487      5481      5483      5486      5488
      5481      5483      5486      5509      5482      5481      5480      5511
      5482      5481      5483      5484      5482      5481      5483      5485
      5482      5481      5483      5486      5483      5481      5480      5511
      5483      5486      5488      5489      5483      5486      5488      5490
      5483      5486      5488      5498      5483      5486      5509      5506
      5483      5486      5509      5510      5483      5486      5509      5511
      5484      5483      5486      5487      5484      5483      5486      5488
      5484      5483      5486      5509      5485      5483      5486      5487
      5485      5483      5486      5488      5485      5483      5486      5509
      5486      5488      5490      5491      5486      5488      5490      5492
      5486      5488      5490      5493      5486      5488      5498      5496
      5486      5488      5498      5499      5486      5488      5498      5503
      5486      5509      5506      5503      5486      5509      5506      5507
      5486      5509      5506      5508      5486      5509      5511      5512
      5486      5509      5511      5516      5487      5486      5488      5489
      5487      5486      5488      5490      5487      5486      5488      5498
      5487      5486      5509      5506      5487      5486      5509      5510
      5487      5486      5509      5511      5488      5486      5509      5506
      5488      5486      5509      5510      5488      5486      5509      5511
      5488      5490      5493      5494      5488      5490      5493      5495
      5488      5490      5493      5496      5488      5498      5496      5493
      5488      5498      5496      5497      5488      5498      5496      5522
      5488      5498      5499      5500      5488      5498      5499      5501
      5488      5498      5499      5502      5488      5498      5503      5504
      5488      5498      5503      5505      5488      5498      5503      5506
      5489      5488      5486      5509      5489      5488      5490      5491
      5489      5488      5490      5492      5489      5488      5490      5493
      5489      5488      5498      5496      5489      5488      5498      5499
      5489      5488      5498      5503      5490      5488      5486      5509
      5490      5488      5498      5496      5490      5488      5498      5499
      5490      5488      5498      5503      5490      5493      5496      5497
      5490      5493      5496      5498      5490      5493      5496      5522
      5491      5490      5488      5498      5491      5490      5493      5494
      5491      5490      5493      5495      5491      5490      5493      5496
      5492      5490      5488      5498      5492      5490      5493      5494
      5492      5490      5493      5495      5492      5490      5493      5496
      5493      5490      5488      5498      5493      5496      5498      5499
      5493      5496      5498      5503      5493      5496      5522      5523
      5493      5496      5522      5524      5493      5496      5522      5528
      5494      5493      5496      5497      5494      5493      5496      5498
      5494      5493      5496      5522      5495      5493      5496      5497
      5495      5493      5496      5498      5495      5493      5496      5522
      5496      5498      5499      5500      5496      5498      5499      5501
      5496      5498      5499      5502      5496      5498      5503      5504
      5496      5498      5503      5505      5496      5498      5503      5506
      5496      5522      5524      5525      5496      5522      5524      5526
      5496      5522      5524      5527      5496      5522      5528      5529
      5496      5522      5528      5530      5496      5522      5528      5531
      5497      5496      5498      5499      5497      5496      5498      5503
      5497      5496      5522      5523      5497      5496      5522      5524
      5497      5496      5522      5528      5498      5488      5486      5509
      5498      5496      5522      5523      5498      5496      5522      5524
      5498      5496      5522      5528      5498      5503      5506      5507
      5498      5503      5506      5508      5498      5503      5506      5509
      5499      5498      5496      5522      5499      5498      5503      5504
      5499      5498      5503      5505      5499      5498      5503      5506
      5500      5499      5498      5503      5501      5499      5498      5503
      5502      5499      5498      5503      5503      5498      5496      5522
      5503      5506      5509      5510      5503      5506      5509      5511
      5504      5503      5506      5507      5504      5503      5506      5508
      5504      5503      5506      5509      5505      5503      5506      5507
      5505      5503      5506      5508      5505      5503      5506      5509
      5506      5509      5511      5512      5506      5509      5511      5516
      5507      5506      5509      5510      5507      5506      5509      5511
      5508      5506      5509      5510      5508      5506      5509      5511
      5509      5511      5512      5513      5509      5511      5512      5514
      5509      5511      5512      5515      5509      5511      5516      5517
      5509      5511      5516      5518      5509      5511      5516      5519
      5510      5509      5511      5512      5510      5509      5511      5516
      5511      5516      5519      5520      5511      5516      5519      5521
      5512      5511      5516      5517      5512      5511      5516      5518
      5512      5511      5516      5519      5513      5512      5511      5516
      5514      5512      5511      5516      5515      5512      5511      5516
      5517      5516      5519      5520      5517      5516      5519      5521
      5518      5516      5519      5520      5518      5516      5519      5521
      5522      5528      5531      5532      5522      5528      5531      5533
      5522      5528      5531      5534      5523      5522      5524      5525
      5523      5522      5524      5526      5523      5522      5524      5527
      5523      5522      5528      5529      5523      5522      5528      5530
      5523      5522      5528      5531      5524      5522      5528      5529
      5524      5522      5528      5530      5524      5522      5528      5531
      5525      5524      5522      5528      5526      5524      5522      5528
      5527      5524      5522      5528      5528      5531      5534      5535
      5528      5531      5534      5536      5528      5531      5534      5537
      5529      5528      5531      5532      5529      5528      5531      5533
      5529      5528      5531      5534      5530      5528      5531      5532
      5530      5528      5531      5533      5530      5528      5531      5534
      5531      5534      5537      5538      5531      5534      5537      5539
      5531      5534      5537      5543      5532      5531      5534      5535
      5532      5531      5534      5536      5532      5531      5534      5537
      5533      5531      5534      5535      5533      5531      5534      5536
      5533      5531      5534      5537      5534      5537      5539      5540
      5534      5537      5539      5541      5534      5537      5539      5542
      5534      5537      5543      5544      5534      5537      5543      5545
      5534      5537      5543      5546      5535      5534      5537      5538
      5535      5534      5537      5539      5535      5534      5537      5543
      5536      5534      5537      5538      5536      5534      5537      5539
      5536      5534      5537      5543      5538      5537      5539      5540
      5538      5537      5539      5541      5538      5537      5539      5542
      5538      5537      5543      5544      5538      5537      5543      5545
      5538      5537      5543      5546      5539      5537      5543      5544
      5539      5537      5543      5545      5539      5537      5543      5546
      5540      5539      5537      5543      5541      5539      5537      5543
      5542      5539      5537      5543      5547      5551      5554      5555
      5547      5551      5554      5585      5547      5593      5590      5585
      5547      5593      5590      5591      5547      5593      5590      5592
      5548      5547      5549      5550      5548      5547      5551      5552
      5548      5547      5551      5553      5548      5547      5551      5554
      5548      5547      5593      5590      5548      5547      5593      5594
      5548      5547      5593      5595      5549      5547      5551      5552
      5549      5547      5551      5553      5549      5547      5551      5554
      5549      5547      5593      5590      5549      5547      5593      5594
      5549      5547      5593      5595      5550      5549      5547      5551
      5550      5549      5547      5593      5551      5547      5593      5590
      5551      5547      5593      5594      5551      5547      5593      5595
      5551      5554      5555      5556      5551      5554      5555      5557
      5551      5554      5585      5583      5551      5554      5585      5586
      5551      5554      5585      5590      5552      5551      5547      5593
      5552      5551      5554      5555      5552      5551      5554      5585
      5553      5551      5547      5593      5553      5551      5554      5555
      5553      5551      5554      5585      5554      5551      5547      5593
      5554      5555      5557      5558      5554      5555      5557      5559
      5554      5555      5557      5560      5554      5585      5583      5560
      5554      5585      5583      5580      5554      5585      5583      5584
      5554      5585      5586      5587      5554      5585      5586      5588
      5554      5585      5586      5589      5554      5585      5590      5591
      5554      5585      5590      5592      5554      5585      5590      5593
      5555      5554      5585      5583      5555      5554      5585      5586
      5555      5554      5585      5590      5555      5557      5560      5561
      5555      5557      5560      5562      5555      5557      5560      5583
      5556      5555      5554      5585      5556      5555      5557      5558
      5556      5555      5557      5559      5556      5555      5557      5560
      5557      5555      5554      5585      5557      5560      5562      5563
      5557      5560      5562      5564      5557      5560      5562      5572
      5557      5560      5583      5580      5557      5560      5583      5584
      5557      5560      5583      5585      5558      5557      5560      5561
      5558      5557      5560      5562      5558      5557      5560      5583
      5559      5557      5560      5561      5559      5557      5560      5562
      5559      5557      5560      5583      5560      5562      5564      5565
      5560      5562      5564      5566      5560      5562      5564      5567
      5560      5562      5572      5570      5560      5562      5572      5573
      5560      5562      5572      5577      5560      5583      5580      5577
      5560      5583      5580      5581      5560      5583      5580      5582
      5560      5583      5585      5586      5560      5583      5585      5590
      5561      5560      5562      5563      5561      5560      5562      5564
      5561      5560      5562      5572      5561      5560      5583      5580
      5561      5560      5583      5584      5561      5560      5583      5585
      5562      5560      5583      5580      5562      5560      5583      5584
      5562      5560      5583      5585      5562      5564      5567      5568
      5562      5564      5567      5569      5562      5564      5567      5570
      5562      5572      5570      5567      5562      5572      5570      5571
      5562      5572      5570      5596      5562      5572      5573      5574
      5562      5572      5573      5575      5562      5572      5573      5576
      5562      5572      5577      5578      5562      5572      5577      5579
      5562      5572      5577      5580      5563      5562      5560      5583
      5563      5562      5564      5565      5563      5562      5564      5566
      5563      5562      5564      5567      5563      5562      5572      5570
      5563      5562      5572      5573      5563      5562      5572      5577
      5564      5562      5560      5583      5564      5562      5572      5570
      5564      5562      5572      5573      5564      5562      5572      5577
      5564      5567      5570      5571      5564      5567      5570      5572
      5564      5567      5570      5596      5565      5564      5562      5572
      5565      5564      5567      5568      5565      5564      5567      5569
      5565      5564      5567      5570      5566      5564      5562      5572
      5566      5564      5567      5568      5566      5564      5567      5569
      5566      5564      5567      5570      5567      5564      5562      5572
      5567      5570      5572      5573      5567      5570      5572      5577
      5567      5570      5596      5597      5567      5570      5596      5598
      5567      5570      5596      5602      5568      5567      5570      5571
      5568      5567      5570      5572      5568      5567      5570      5596
      5569      5567      5570      5571      5569      5567      5570      5572
      5569      5567      5570      5596      5570      5572      5573      5574
      5570      5572      5573      5575      5570      5572      5573      5576
      5570      5572      5577      5578      5570      5572      5577      5579
      5570      5572      5577      5580      5570      5596      5598      5599
      5570      5596      5598      5600      5570      5596      5598      5601
      5570      5596      5602      5603      5570      5596      5602      5604
      5570      5596      5602      5605      5571      5570      5572      5573
      5571      5570      5572      5577      5571      5570      5596      5597
      5571      5570      5596      5598      5571      5570      5596      5602
      5572      5562      5560      5583      5572      5570      5596      5597
      5572      5570      5596      5598      5572      5570      5596      5602
      5572      5577      5580      5581      5572      5577      5580      5582
      5572      5577      5580      5583      5573      5572      5570      5596
      5573      5572      5577      5578      5573      5572      5577      5579
      5573      5572      5577      5580      5574      5573      5572      5577
      5575      5573      5572      5577      5576      5573      5572      5577
      5577      5572      5570      5596      5577      5580      5583      5584
      5577      5580      5583      5585      5578      5577      5580      5581
      5578      5577      5580      5582      5578      5577      5580      5583
      5579      5577      5580      5581      5579      5577      5580      5582
      5579      5577      5580      5583      5580      5583      5585      5586
      5580      5583      5585      5590      5581      5580      5583      5584
      5581      5580      5583      5585      5582      5580      5583      5584
      5582      5580      5583      5585      5583      5585      5586      5587
      5583      5585      5586      5588      5583      5585      5586      5589
      5583      5585      5590      5591      5583      5585      5590      5592
      5583      5585      5590      5593      5584      5583      5585      5586
      5584      5583      5585      5590      5585      5590      5593      5594
      5585      5590      5593      5595      5586      5585      5590      5591
      5586      5585      5590      5592      5586      5585      5590      5593
      5587      5586      5585      5590      5588      5586      5585      5590
      5589      5586      5585      5590      5591      5590      5593      5594
      5591      5590      5593      5595      5592      5590      5593      5594
      5592      5590      5593      5595      5596      5602      5605      5606
      5596      5602      5605      5607      5596      5602      5605      5608
      5597      5596      5598      5599      5597      5596      5598      5600
      5597      5596      5598      5601      5597      5596      5602      5603
      5597      5596      5602      5604      5597      5596      5602      5605
      5598      5596      5602      5603      5598      5596      5602      5604
      5598      5596      5602      5605      5599      5598      5596      5602
      5600      5598      5596      5602      5601      5598      5596      5602
      5602      5605      5608      5609      5602      5605      5608      5610
      5602      5605      5608      5611      5603      5602      5605      5606
      5603      5602      5605      5607      5603      5602      5605      5608
      5604      5602      5605      5606      5604      5602      5605      5607
      5604      5602      5605      5608      5605      5608      5611      5612
      5605      5608      5611      5613      5605      5608      5611      5617
      5606      5605      5608      5609      5606      5605      5608      5610
      5606      5605      5608      5611      5607      5605      5608      5609
      5607      5605      5608      5610      5607      5605      5608      5611
      5608      5611      5613      5614      5608      5611      5613      5615
      5608      5611      5613      5616      5608      5611      5617      5618
      5608      5611      5617      5619      5608      5611      5617      5620
      5609      5608      5611      5612      5609      5608      5611      5613
      5609      5608      5611      5617      5610      5608      5611      5612
      5610      5608      5611      5613      5610      5608      5611      5617
      5612      5611      5613      5614      5612      5611      5613      5615
      5612      5611      5613      5616      5612      5611      5617      5618
      5612      5611      5617      5619      5612      5611      5617      5620
      5613      5611      5617      5618      5613      5611      5617      5619
      5613      5611      5617      5620      5614      5613      5611      5617
      5615      5613      5611      5617      5616      5613      5611      5617
      5621      5625      5628      5629      5621      5625      5628      5659
      5621      5667      5664      5659      5621      5667      5664      5665
      5621      5667      5664      5666      5622      5621      5623      5624
      5622      5621      5625      5626      5622      5621      5625      5627
      5622      5621      5625      5628      5622      5621      5667      5664
      5622      5621      5667      5668      5622      5621      5667      5669
      5623      5621      5625      5626      5623      5621      5625      5627
      5623      5621      5625      5628      5623      5621      5667      5664
      5623      5621      5667      5668      5623      5621      5667      5669
      5624      5623      5621      5625      5624      5623      5621      5667
      5625      5621      5667      5664      5625      5621      5667      5668
      5625      5621      5667      5669      5625      5628      5629      5630
      5625      5628      5629      5631      5625      5628      5659      5657
      5625      5628      5659      5660      5625      5628      5659      5664
      5626      5625      5621      5667      5626      5625      5628      5629
      5626      5625      5628      5659      5627      5625      5621      5667
      5627      5625      5628      5629      5627      5625      5628      5659
      5628      5625      5621      5667      5628      5629      5631      5632
      5628      5629      5631      5633      5628      5629      5631      5634
      5628      5659      5657      5634      5628      5659      5657      5654
      5628      5659      5657      5658      5628      5659      5660      5661
      5628      5659      5660      5662      5628      5659      5660      5663
      5628      5659      5664      5665      5628      5659      5664      5666
      5628      5659      5664      5667      5629      5628      5659      5657
      5629      5628      5659      5660      5629      5628      5659      5664
      5629      5631      5634      5635      5629      5631      5634      5636
      5629      5631      5634      5657      5630      5629      5628      5659
      5630      5629      5631      5632      5630      5629      5631      5633
      5630      5629      5631      5634      5631      5629      5628      5659
      5631      5634      5636      5637      5631      5634      5636      5638
      5631      5634      5636      5646      5631      5634      5657      5654
      5631      5634      5657      5658      5631      5634      5657      5659
      5632      5631      5634      5635      5632      5631      5634      5636
      5632      5631      5634      5657      5633      5631      5634      5635
      5633      5631      5634      5636      5633      5631      5634      5657
      5634      5636      5638      5639      5634      5636      5638      5640
      5634      5636      5638      5641      5634      5636      5646      5644
      5634      5636      5646      5647      5634      5636      5646      5651
      5634      5657      5654      5651      5634      5657      5654      5655
      5634      5657      5654      5656      5634      5657      5659      5660
      5634      5657      5659      5664      5635      5634      5636      5637
      5635      5634      5636      5638      5635      5634      5636      5646
      5635      5634      5657      5654      5635      5634      5657      5658
      5635      5634      5657      5659      5636      5634      5657      5654
      5636      5634      5657      5658      5636      5634      5657      5659
      5636      5638      5641      5642      5636      5638      5641      5643
      5636      5638      5641      5644      5636      5646      5644      5641
      5636      5646      5644      5645      5636      5646      5644      5670
      5636      5646      5647      5648      5636      5646      5647      5649
      5636      5646      5647      5650      5636      5646      5651      5652
      5636      5646      5651      5653      5636      5646      5651      5654
      5637      5636      5634      5657      5637      5636      5638      5639
      5637      5636      5638      5640      5637      5636      5638      5641
      5637      5636      5646      5644      5637      5636      5646      5647
      5637      5636      5646      5651      5638      5636      5634      5657
      5638      5636      5646      5644      5638      5636      5646      5647
      5638      5636      5646      5651      5638      5641      5644      5645
      5638      5641      5644      5646      5638      5641      5644      5670
      5639      5638      5636      5646      5639      5638      5641      5642
      5639      5638      5641      5643      5639      5638      5641      5644
      5640      5638      5636      5646      5640      5638      5641      5642
      5640      5638      5641      5643      5640      5638      5641      5644
      5641      5638      5636      5646      5641      5644      5646      5647
      5641      5644      5646      5651      5641      5644      5670      5671
      5641      5644      5670      5672      5641      5644      5670      5676
      5642      5641      5644      5645      5642      5641      5644      5646
      5642      5641      5644      5670      5643      5641      5644      5645
      5643      5641      5644      5646      5643      5641      5644      5670
      5644      5646      5647      5648      5644      5646      5647      5649
      5644      5646      5647      5650      5644      5646      5651      5652
      5644      5646      5651      5653      5644      5646      5651      5654
      5644      5670      5672      5673      5644      5670      5672      5674
      5644      5670      5672      5675      5644      5670      5676      5677
      5644      5670      5676      5678      5644      5670      5676      5679
      5645      5644      5646      5647      5645      5644      5646      5651
      5645      5644      5670      5671      5645      5644      5670      5672
      5645      5644      5670      5676      5646      5636      5634      5657
      5646      5644      5670      5671      5646      5644      5670      5672
      5646      5644      5670      5676      5646      5651      5654      5655
      5646      5651      5654      5656      5646      5651      5654      5657
      5647      5646      5644      5670      5647      5646      5651      5652
      5647      5646      5651      5653      5647      5646      5651      5654
      5648      5647      5646      5651      5649      5647      5646      5651
      5650      5647      5646      5651      5651      5646      5644      5670
      5651      5654      5657      5658      5651      5654      5657      5659
      5652      5651      5654      5655      5652      5651      5654      5656
      5652      5651      5654      5657      5653      5651      5654      5655
      5653      5651      5654      5656      5653      5651      5654      5657
      5654      5657      5659      5660      5654      5657      5659      5664
      5655      5654      5657      5658      5655      5654      5657      5659
      5656      5654      5657      5658      5656      5654      5657      5659
      5657      5659      5660      5661      5657      5659      5660      5662
      5657      5659      5660      5663      5657      5659      5664      5665
      5657      5659      5664      5666      5657      5659      5664      5667
      5658      5657      5659      5660      5658      5657      5659      5664
      5659      5664      5667      5668      5659      5664      5667      5669
      5660      5659      5664      5665      5660      5659      5664      5666
      5660      5659      5664      5667      5661      5660      5659      5664
      5662      5660      5659      5664      5663      5660      5659      5664
      5665      5664      5667      5668      5665      5664      5667      5669
      5666      5664      5667      5668      5666      5664      5667      5669
      5670      5676      5679      5680      5670      5676      5679      5681
      5670      5676      5679      5682      5671      5670      5672      5673
      5671      5670      5672      5674      5671      5670      5672      5675
      5671      5670      5676      5677      5671      5670      5676      5678
      5671      5670      5676      5679      5672      5670      5676      5677
      5672      5670      5676      5678      5672      5670      5676      5679
      5673      5672      5670      5676      5674      5672      5670      5676
      5675      5672      5670      5676      5676      5679      5682      5683
      5676      5679      5682      5684      5676      5679      5682      5685
      5677      5676      5679      5680      5677      5676      5679      5681
      5677      5676      5679      5682      5678      5676      5679      5680
      5678      5676      5679      5681      5678      5676      5679      5682
      5679      5682      5685      5686      5679      5682      5685      5687
      5679      5682      5685      5691      5680      5679      5682      5683
      5680      5679      5682      5684      5680      5679      5682      5685
      5681      5679      5682      5683      5681      5679      5682      5684
      5681      5679      5682      5685      5682      5685      5687      5688
      5682      5685      5687      5689      5682      5685      5687      5690
      5682      5685      5691      5692      5682      5685      5691      5693
      5682      5685      5691      5694      5683      5682      5685      5686
      5683      5682      5685      5687      5683      5682      5685      5691
      5684      5682      5685      5686      5684      5682      5685      5687
      5684      5682      5685      5691      5686      5685      5687      5688
      5686      5685      5687      5689      5686      5685      5687      5690
      5686      5685      5691      5692      5686      5685      5691      5693
      5686      5685      5691      5694      5687      5685      5691      5692
      5687      5685      5691      5693      5687      5685      5691      5694
      5688      5687      5685      5691      5689      5687      5685      5691
      5690      5687      5685      5691      5695      5699      5702      5703
      5695      5699      5702      5733      5695      5741      5738      5733
      5695      5741      5738      5739      5695      5741      5738      5740
      5696      5695      5697      5698      5696      5695      5699      5700
      5696      5695      5699      5701      5696      5695      5699      5702
      5696      5695      5741      5738      5696      5695      5741      5742
      5696      5695      5741      5743      5697      5695      5699      5700
      5697      5695      5699      5701      5697      5695      5699      5702
      5697      5695      5741      5738      5697      5695      5741      5742
      5697      5695      5741      5743      5698      5697      5695      5699
      5698      5697      5695      5741      5699      5695      5741      5738
      5699      5695      5741      5742      5699      5695      5741      5743
      5699      5702      5703      5704      5699      5702      5703      5705
      5699      5702      5733      5731      5699      5702      5733      5734
      5699      5702      5733      5738      5700      5699      5695      5741
      5700      5699      5702      5703      5700      5699      5702      5733
      5701      5699      5695      5741      5701      5699      5702      5703
      5701      5699      5702      5733      5702      5699      5695      5741
      5702      5703      5705      5706      5702      5703      5705      5707
      5702      5703      5705      5708      5702      5733      5731      5708
      5702      5733      5731      5728      5702      5733      5731      5732
      5702      5733      5734      5735      5702      5733      5734      5736
      5702      5733      5734      5737      5702      5733      5738      5739
      5702      5733      5738      5740      5702      5733      5738      5741
      5703      5702      5733      5731      5703      5702      5733      5734
      5703      5702      5733      5738      5703      5705      5708      5709
      5703      5705      5708      5710      5703      5705      5708      5731
      5704      5703      5702      5733      5704      5703      5705      5706
      5704      5703      5705      5707      5704      5703      5705      5708
      5705      5703      5702      5733      5705      5708      5710      5711
      5705      5708      5710      5712      5705      5708      5710      5720
      5705      5708      5731      5728      5705      5708      5731      5732
      5705      5708      5731      5733      5706      5705      5708      5709
      5706      5705      5708      5710      5706      5705      5708      5731
      5707      5705      5708      5709      5707      5705      5708      5710
      5707      5705      5708      5731      5708      5710      5712      5713
      5708      5710      5712      5714      5708      5710      5712      5715
      5708      5710      5720      5718      5708      5710      5720      5721
      5708      5710      5720      5725      5708      5731      5728      5725
      5708      5731      5728      5729      5708      5731      5728      5730
      5708      5731      5733      5734      5708      5731      5733      5738
      5709      5708      5710      5711      5709      5708      5710      5712
      5709      5708      5710      5720      5709      5708      5731      5728
      5709      5708      5731      5732      5709      5708      5731      5733
      5710      5708      5731      5728      5710      5708      5731      5732
      5710      5708      5731      5733      5710      5712      5715      5716
      5710      5712      5715      5717      5710      5712      5715      5718
      5710      5720      5718      5715      5710      5720      5718      5719
      5710      5720      5718      5744      5710      5720      5721      5722
      5710      5720      5721      5723      5710      5720      5721      5724
      5710      5720      5725      5726      5710      5720      5725      5727
      5710      5720      5725      5728      5711      5710      5708      5731
      5711      5710      5712      5713      5711      5710      5712      5714
      5711      5710      5712      5715      5711      5710      5720      5718
      5711      5710      5720      5721      5711      5710      5720      5725
      5712      5710      5708      5731      5712      5710      5720      5718
      5712      5710      5720      5721      5712      5710      5720      5725
      5712      5715      5718      5719      5712      5715      5718      5720
      5712      5715      5718      5744      5713      5712      5710      5720
      5713      5712      5715      5716      5713      5712      5715      5717
      5713      5712      5715      5718      5714      5712      5710      5720
      5714      5712      5715      5716      5714      5712      5715      5717
      5714      5712      5715      5718      5715      5712      5710      5720
      5715      5718      5720      5721      5715      5718      5720      5725
      5715      5718      5744      5745      5715      5718      5744      5746
      5715      5718      5744      5750      5716      5715      5718      5719
      5716      5715      5718      5720      5716      5715      5718      5744
      5717      5715      5718      5719      5717      5715      5718      5720
      5717      5715      5718      5744      5718      5720      5721      5722
      5718      5720      5721      5723      5718      5720      5721      5724
      5718      5720      5725      5726      5718      5720      5725      5727
      5718      5720      5725      5728      5718      5744      5746      5747
      5718      5744      5746      5748      5718      5744      5746      5749
      5718      5744      5750      5751      5718      5744      5750      5752
      5718      5744      5750      5753      5719      5718      5720      5721
      5719      5718      5720      5725      5719      5718      5744      5745
      5719      5718      5744      5746      5719      5718      5744      5750
      5720      5710      5708      5731      5720      5718      5744      5745
      5720      5718      5744      5746      5720      5718      5744      5750
      5720      5725      5728      5729      5720      5725      5728      5730
      5720      5725      5728      5731      5721      5720      5718      5744
      5721      5720      5725      5726      5721      5720      5725      5727
      5721      5720      5725      5728      5722      5721      5720      5725
      5723      5721      5720      5725      5724      5721      5720      5725
      5725      5720      5718      5744      5725      5728      5731      5732
      5725      5728      5731      5733      5726      5725      5728      5729
      5726      5725      5728      5730      5726      5725      5728      5731
      5727      5725      5728      5729      5727      5725      5728      5730
      5727      5725      5728      5731      5728      5731      5733      5734
      5728      5731      5733      5738      5729      5728      5731      5732
      5729      5728      5731      5733      5730      5728      5731      5732
      5730      5728      5731      5733      5731      5733      5734      5735
      5731      5733      5734      5736      5731      5733      5734      5737
      5731      5733      5738      5739      5731      5733      5738      5740
      5731      5733      5738      5741      5732      5731      5733      5734
      5732      5731      5733      5738      5733      5738      5741      5742
      5733      5738      5741      5743      5734      5733      5738      5739
      5734      5733      5738      5740      5734      5733      5738      5741
      5735      5734      5733      5738      5736      5734      5733      5738
      5737      5734      5733      5738      5739      5738      5741      5742
      5739      5738      5741      5743      5740      5738      5741      5742
      5740      5738      5741      5743      5744      5750      5753      5754
      5744      5750      5753      5755      5744      5750      5753      5756
      5745      5744      5746      5747      5745      5744      5746      5748
      5745      5744      5746      5749      5745      5744      5750      5751
      5745      5744      5750      5752      5745      5744      5750      5753
      5746      5744      5750      5751      5746      5744      5750      5752
      5746      5744      5750      5753      5747      5746      5744      5750
      5748      5746      5744      5750      5749      5746      5744      5750
      5750      5753      5756      5757      5750      5753      5756      5758
      5750      5753      5756      5759      5751      5750      5753      5754
      5751      5750      5753      5755      5751      5750      5753      5756
      5752      5750      5753      5754      5752      5750      5753      5755
      5752      5750      5753      5756      5753      5756      5759      5760
      5753      5756      5759      5761      5753      5756      5759      5765
      5754      5753      5756      5757      5754      5753      5756      5758
      5754      5753      5756      5759      5755      5753      5756      5757
      5755      5753      5756      5758      5755      5753      5756      5759
      5756      5759      5761      5762      5756      5759      5761      5763
      5756      5759      5761      5764      5756      5759      5765      5766
      5756      5759      5765      5767      5756      5759      5765      5768
      5757      5756      5759      5760      5757      5756      5759      5761
      5757      5756      5759      5765      5758      5756      5759      5760
      5758      5756      5759      5761      5758      5756      5759      5765
      5760      5759      5761      5762      5760      5759      5761      5763
      5760      5759      5761      5764      5760      5759      5765      5766
      5760      5759      5765      5767      5760      5759      5765      5768
      5761      5759      5765      5766      5761      5759      5765      5767
      5761      5759      5765      5768      5762      5761      5759      5765
      5763      5761      5759      5765      5764      5761      5759      5765
     18179     18183     18186     18187     18179     18183     18186     18188
     18179     18183     18186     18192     18180     18179     18183     18184
     18180     18179     18183     18185     18180     18179     18183     18186
     18181     18179     18183     18184     18181     18179     18183     18185
     18181     18179     18183     18186     18182     18179     18183     18184
     18182     18179     18183     18185     18182     18179     18183     18186
     18183     18186     18192     18189     18184     18183     18186     18187
     18184     18183     18186     18188     18184     18183     18186     18192
     18185     18183     18186     18187     18185     18183     18186     18188
     18185     18183     18186     18192     18186     18192     18189     18190
     18186     18192     18189     18191     18186     18192     18189     18193
     18187     18186     18192     18189     18188     18186     18192     18189
     18189     18193     18194     18195     18189     18193     18194     18196
     18189     18193     18194     18197     18190     18189     18193     18194
     18191     18189     18193     18194     18192     18189     18193     18194
     18193     18194     18197     18198     18193     18194     18197     18199
     18193     18194     18197     18205     18194     18197     18199     18200
     18194     18197     18205     18206     18194     18197     18205     18207
     18194     18197     18205     18208     18195     18194     18197     18198
     18195     18194     18197     18199     18195     18194     18197     18205
     18196     18194     18197     18198     18196     18194     18197     18199
     18196     18194     18197     18205     18197     18199     18200     18201
     18197     18199     18200     18202     18197     18205     18208     18209
     18198     18197     18199     18200     18198     18197     18205     18206
     18198     18197     18205     18207     18198     18197     18205     18208
     18199     18197     18205     18206     18199     18197     18205     18207
     18199     18197     18205     18208     18199     18200     18202     18203
     18199     18200     18202     18204     18199     18200     18202     18214
     18200     18199     18197     18205     18200     18202     18214     18215
     18200     18202     18214     18216     18200     18202     18214     18217
     18201     18200     18202     18203     18201     18200     18202     18204
     18201     18200     18202     18214     18202     18214     18217     18218
     18202     18214     18217     18219     18202     18214     18217     18220
     18203     18202     18214     18215     18203     18202     18214     18216
     18203     18202     18214     18217     18204     18202     18214     18215
     18204     18202     18214     18216     18204     18202     18214     18217
     18205     18208     18209     18210     18205     18208     18209     18211
     18206     18205     18208     18209     18207     18205     18208     18209
     18208     18209     18211     18212     18208     18209     18211     18213
     18208     18209     18211     18261     18209     18211     18261     18262
     18209     18211     18261     18263     18209     18211     18261     18264
     18210     18209     18211     18212     18210     18209     18211     18213
     18210     18209     18211     18261     18211     18261     18264     18265
     18211     18261     18264     18266     18211     18261     18264     18267
     18212     18211     18261     18262     18212     18211     18261     18263
     18212     18211     18261     18264     18213     18211     18261     18262
     18213     18211     18261     18263     18213     18211     18261     18264
     18214     18217     18220     18221     18214     18217     18220     18222
     18215     18214     18217     18218     18215     18214     18217     18219
     18215     18214     18217     18220     18216     18214     18217     18218
     18216     18214     18217     18219     18216     18214     18217     18220
     18217     18220     18222     18223     18217     18220     18222     18224
     18218     18217     18220     18221     18218     18217     18220     18222
     18219     18217     18220     18221     18219     18217     18220     18222
     18220     18222     18224     18225     18220     18222     18224     18226
     18220     18222     18224     18227     18221     18220     18222     18223
     18221     18220     18222     18224     18222     18224     18227     18228
     18222     18224     18227     18229     18223     18222     18224     18225
     18223     18222     18224     18226     18223     18222     18224     18227
     18224     18227     18229     18230     18224     18227     18229     18231
     18225     18224     18227     18228     18225     18224     18227     18229
     18226     18224     18227     18228     18226     18224     18227     18229
     18227     18229     18231     18232     18227     18229     18231     18233
     18227     18229     18231     18234     18228     18227     18229     18230
     18228     18227     18229     18231     18229     18231     18234     18235
     18229     18231     18234     18236     18230     18229     18231     18232
     18230     18229     18231     18233     18230     18229     18231     18234
     18231     18234     18236     18237     18231     18234     18236     18238
     18232     18231     18234     18235     18232     18231     18234     18236
     18233     18231     18234     18235     18233     18231     18234     18236
     18234     18236     18238     18239     18234     18236     18238     18240
     18234     18236     18238     18241     18235     18234     18236     18237
     18235     18234     18236     18238     18236     18238     18241     18242
     18236     18238     18241     18243     18237     18236     18238     18239
     18237     18236     18238     18240     18237     18236     18238     18241
     18238     18241     18243     18244     18238     18241     18243     18245
     18239     18238     18241     18242     18239     18238     18241     18243
     18240     18238     18241     18242     18240     18238     18241     18243
     18241     18243     18245     18246     18241     18243     18245     18247
     18241     18243     18245     18248     18242     18241     18243     18244
     18242     18241     18243     18245     18243     18245     18248     18249
     18243     18245     18248     18250     18243     18245     18248     18251
     18244     18243     18245     18246     18244     18243     18245     18247
     18244     18243     18245     18248     18245     18248     18251     18252
     18245     18248     18251     18253     18245     18248     18251     18254
     18246     18245     18248     18249     18246     18245     18248     18250
     18246     18245     18248     18251     18247     18245     18248     18249
     18247     18245     18248     18250     18247     18245     18248     18251
     18248     18251     18254     18255     18248     18251     18254     18256
     18248     18251     18254     18257     18249     18248     18251     18252
     18249     18248     18251     18253     18249     18248     18251     18254
     18250     18248     18251     18252     18250     18248     18251     18253
     18250     18248     18251     18254     18251     18254     18257     18258
     18251     18254     18257     18259     18251     18254     18257     18260
     18252     18251     18254     18255     18252     18251     18254     18256
     18252     18251     18254     18257     18253     18251     18254     18255
     18253     18251     18254     18256     18253     18251     18254     18257
     18255     18254     18257     18258     18255     18254     18257     18259
     18255     18254     18257     18260     18256     18254     18257     18258
     18256     18254     18257     18259     18256     18254     18257     18260
     18261     18264     18267     18268     18261     18264     18267     18269
     18261     18264     18267     18270     18262     18261     18264     18265
     18262     18261     18264     18266     18262     18261     18264     18267
     18263     18261     18264     18265     18263     18261     18264     18266
     18263     18261     18264     18267     18264     18267     18270     18271
     18264     18267     18270     18272     18264     18267     18270     18273
     18265     18264     18267     18268     18265     18264     18267     18269
     18265     18264     18267     18270     18266     18264     18267     18268
     18266     18264     18267     18269     18266     18264     18267     18270
     18267     18270     18273     18274     18267     18270     18273     18275
     18267     18270     18273     18276     18268     18267     18270     18271
     18268     18267     18270     18272     18268     18267     18270     18273
     18269     18267     18270     18271     18269     18267     18270     18272
     18269     18267     18270     18273     18270     18273     18276     18277
     18270     18273     18276     18278     18270     18273     18276     18279
     18271     18270     18273     18274     18271     18270     18273     18275
     18271     18270     18273     18276     18272     18270     18273     18274
     18272     18270     18273     18275     18272     18270     18273     18276
     18273     18276     18279     18280     18273     18276     18279     18281
     18273     18276     18279     18282     18274     18273     18276     18277
     18274     18273     18276     18278     18274     18273     18276     18279
     18275     18273     18276     18277     18275     18273     18276     18278
     18275     18273     18276     18279     18276     18279     18282     18283
     18276     18279     18282     18284     18276     18279     18282     18285
     18277     18276     18279     18280     18277     18276     18279     18281
     18277     18276     18279     18282     18278     18276     18279     18280
     18278     18276     18279     18281     18278     18276     18279     18282
     18279     18282     18285     18286     18279     18282     18285     18287
     18279     18282     18285     18288     18280     18279     18282     18283
     18280     18279     18282     18284     18280     18279     18282     18285
     18281     18279     18282     18283     18281     18279     18282     18284
     18281     18279     18282     18285     18282     18285     18288     18289
     18282     18285     18288     18290     18282     18285     18288     18291
     18283     18282     18285     18286     18283     18282     18285     18287
     18283     18282     18285     18288     18284     18282     18285     18286
     18284     18282     18285     18287     18284     18282     18285     18288
     18285     18288     18291     18292     18285     18288     18291     18293
     18285     18288     18291     18294     18286     18285     18288     18289
     18286     18285     18288     18290     18286     18285     18288     18291
     18287     18285     18288     18289     18287     18285     18288     18290
     18287     18285     18288     18291     18288     18291     18294     18295
     18288     18291     18294     18296     18288     18291     18294     18297
     18289     18288     18291     18292     18289     18288     18291     18293
     18289     18288     18291     18294     18290     18288     18291     18292
     18290     18288     18291     18293     18290     18288     18291     18294
     18291     18294     18297     18298     18291     18294     18297     18299
     18291     18294     18297     18300     18292     18291     18294     18295
     18292     18291     18294     18296     18292     18291     18294     18297
     18293     18291     18294     18295     18293     18291     18294     18296
     18293     18291     18294     18297     18294     18297     18300     18301
     18294     18297     18300     18302     18294     18297     18300     18303
     18295     18294     18297     18298     18295     18294     18297     18299
     18295     18294     18297     18300     18296     18294     18297     18298
     18296     18294     18297     18299     18296     18294     18297     18300
     18297     18300     18303     18304     18297     18300     18303     18305
     18297     18300     18303     18306     18298     18297     18300     18301
     18298     18297     18300     18302     18298     18297     18300     18303
     18299     18297     18300     18301     18299     18297     18300     18302
     18299     18297     18300     18303     18300     18303     18306     18307
     18300     18303     18306     18308     18300     18303     18306     18309
     18301     18300     18303     18304     18301     18300     18303     18305
     18301     18300     18303     18306     18302     18300     18303     18304
     18302     18300     18303     18305     18302     18300     18303     18306
     18304     18303     18306     18307     18304     18303     18306     18308
     18304     18303     18306     18309     18305     18303     18306     18307
     18305     18303     18306     18308     18305     18303     18306     18309
      5769      5773      5776      5777      5769      5773      5776      5807
      5769      5815      5812      5807      5769      5815      5812      5813
      5769      5815      5812      5814      5770      5769      5771      5772
      5770      5769      5773      5774      5770      5769      5773      5775
      5770      5769      5773      5776      5770      5769      5815      5812
      5770      5769      5815      5816      5770      5769      5815      5817
      5771      5769      5773      5774      5771      5769      5773      5775
      5771      5769      5773      5776      5771      5769      5815      5812
      5771      5769      5815      5816      5771      5769      5815      5817
      5772      5771      5769      5773      5772      5771      5769      5815
      5773      5769      5815      5812      5773      5769      5815      5816
      5773      5769      5815      5817      5773      5776      5777      5778
      5773      5776      5777      5779      5773      5776      5807      5805
      5773      5776      5807      5808      5773      5776      5807      5812
      5774      5773      5769      5815      5774      5773      5776      5777
      5774      5773      5776      5807      5775      5773      5769      5815
      5775      5773      5776      5777      5775      5773      5776      5807
      5776      5773      5769      5815      5776      5777      5779      5780
      5776      5777      5779      5781      5776      5777      5779      5782
      5776      5807      5805      5782      5776      5807      5805      5802
      5776      5807      5805      5806      5776      5807      5808      5809
      5776      5807      5808      5810      5776      5807      5808      5811
      5776      5807      5812      5813      5776      5807      5812      5814
      5776      5807      5812      5815      5777      5776      5807      5805
      5777      5776      5807      5808      5777      5776      5807      5812
      5777      5779      5782      5783      5777      5779      5782      5784
      5777      5779      5782      5805      5778      5777      5776      5807
      5778      5777      5779      5780      5778      5777      5779      5781
      5778      5777      5779      5782      5779      5777      5776      5807
      5779      5782      5784      5785      5779      5782      5784      5786
      5779      5782      5784      5794      5779      5782      5805      5802
      5779      5782      5805      5806      5779      5782      5805      5807
      5780      5779      5782      5783      5780      5779      5782      5784
      5780      5779      5782      5805      5781      5779      5782      5783
      5781      5779      5782      5784      5781      5779      5782      5805
      5782      5784      5786      5787      5782      5784      5786      5788
      5782      5784      5786      5789      5782      5784      5794      5792
      5782      5784      5794      5795      5782      5784      5794      5799
      5782      5805      5802      5799      5782      5805      5802      5803
      5782      5805      5802      5804      5782      5805      5807      5808
      5782      5805      5807      5812      5783      5782      5784      5785
      5783      5782      5784      5786      5783      5782      5784      5794
      5783      5782      5805      5802      5783      5782      5805      5806
      5783      5782      5805      5807      5784      5782      5805      5802
      5784      5782      5805      5806      5784      5782      5805      5807
      5784      5786      5789      5790      5784      5786      5789      5791
      5784      5786      5789      5792      5784      5794      5792      5789
      5784      5794      5792      5793      5784      5794      5792      5818
      5784      5794      5795      5796      5784      5794      5795      5797
      5784      5794      5795      5798      5784      5794      5799      5800
      5784      5794      5799      5801      5784      5794      5799      5802
      5785      5784      5782      5805      5785      5784      5786      5787
      5785      5784      5786      5788      5785      5784      5786      5789
      5785      5784      5794      5792      5785      5784      5794      5795
      5785      5784      5794      5799      5786      5784      5782      5805
      5786      5784      5794      5792      5786      5784      5794      5795
      5786      5784      5794      5799      5786      5789      5792      5793
      5786      5789      5792      5794      5786      5789      5792      5818
      5787      5786      5784      5794      5787      5786      5789      5790
      5787      5786      5789      5791      5787      5786      5789      5792
      5788      5786      5784      5794      5788      5786      5789      5790
      5788      5786      5789      5791      5788      5786      5789      5792
      5789      5786      5784      5794      5789      5792      5794      5795
      5789      5792      5794      5799      5789      5792      5818      5819
      5789      5792      5818      5820      5789      5792      5818      5824
      5790      5789      5792      5793      5790      5789      5792      5794
      5790      5789      5792      5818      5791      5789      5792      5793
      5791      5789      5792      5794      5791      5789      5792      5818
      5792      5794      5795      5796      5792      5794      5795      5797
      5792      5794      5795      5798      5792      5794      5799      5800
      5792      5794      5799      5801      5792      5794      5799      5802
      5792      5818      5820      5821      5792      5818      5820      5822
      5792      5818      5820      5823      5792      5818      5824      5825
      5792      5818      5824      5826      5792      5818      5824      5827
      5793      5792      5794      5795      5793      5792      5794      5799
      5793      5792      5818      5819      5793      5792      5818      5820
      5793      5792      5818      5824      5794      5784      5782      5805
      5794      5792      5818      5819      5794      5792      5818      5820
      5794      5792      5818      5824      5794      5799      5802      5803
      5794      5799      5802      5804      5794      5799      5802      5805
      5795      5794      5792      5818      5795      5794      5799      5800
      5795      5794      5799      5801      5795      5794      5799      5802
      5796      5795      5794      5799      5797      5795      5794      5799
      5798      5795      5794      5799      5799      5794      5792      5818
      5799      5802      5805      5806      5799      5802      5805      5807
      5800      5799      5802      5803      5800      5799      5802      5804
      5800      5799      5802      5805      5801      5799      5802      5803
      5801      5799      5802      5804      5801      5799      5802      5805
      5802      5805      5807      5808      5802      5805      5807      5812
      5803      5802      5805      5806      5803      5802      5805      5807
      5804      5802      5805      5806      5804      5802      5805      5807
      5805      5807      5808      5809      5805      5807      5808      5810
      5805      5807      5808      5811      5805      5807      5812      5813
      5805      5807      5812      5814      5805      5807      5812      5815
      5806      5805      5807      5808      5806      5805      5807      5812
      5807      5812      5815      5816      5807      5812      5815      5817
      5808      5807      5812      5813      5808      5807      5812      5814
      5808      5807      5812      5815      5809      5808      5807      5812
      5810      5808      5807      5812      5811      5808      5807      5812
      5813      5812      5815      5816      5813      5812      5815      5817
      5814      5812      5815      5816      5814      5812      5815      5817
      5818      5824      5827      5828      5818      5824      5827      5829
      5818      5824      5827      5830      5819      5818      5820      5821
      5819      5818      5820      5822      5819      5818      5820      5823
      5819      5818      5824      5825      5819      5818      5824      5826
      5819      5818      5824      5827      5820      5818      5824      5825
      5820      5818      5824      5826      5820      5818      5824      5827
      5821      5820      5818      5824      5822      5820      5818      5824
      5823      5820      5818      5824      5824      5827      5830      5831
      5824      5827      5830      5832      5824      5827      5830      5833
      5825      5824      5827      5828      5825      5824      5827      5829
      5825      5824      5827      5830      5826      5824      5827      5828
      5826      5824      5827      5829      5826      5824      5827      5830
      5827      5830      5833      5834      5827      5830      5833      5835
      5827      5830      5833      5839      5828      5827      5830      5831
      5828      5827      5830      5832      5828      5827      5830      5833
      5829      5827      5830      5831      5829      5827      5830      5832
      5829      5827      5830      5833      5830      5833      5835      5836
      5830      5833      5835      5837      5830      5833      5835      5838
      5830      5833      5839      5840      5830      5833      5839      5841
      5830      5833      5839      5842      5831      5830      5833      5834
      5831      5830      5833      5835      5831      5830      5833      5839
      5832      5830      5833      5834      5832      5830      5833      5835
      5832      5830      5833      5839      5834      5833      5835      5836
      5834      5833      5835      5837      5834      5833      5835      5838
      5834      5833      5839      5840      5834      5833      5839      5841
      5834      5833      5839      5842      5835      5833      5839      5840
      5835      5833      5839      5841      5835      5833      5839      5842
      5836      5835      5833      5839      5837      5835      5833      5839
      5838      5835      5833      5839      7984      7988      7991      7992
      7984      7988      7991      7993      7984      7988      7991      7997
      7985      7984      7988      7989      7985      7984      7988      7990
      7985      7984      7988      7991      7986      7984      7988      7989
      7986      7984      7988      7990      7986      7984      7988      7991
      7987      7984      7988      7989      7987      7984      7988      7990
      7987      7984      7988      7991      7988      7991      7997      7994
      7989      7988      7991      7992      7989      7988      7991      7993
      7989      7988      7991      7997      7990      7988      7991      7992
      7990      7988      7991      7993      7990      7988      7991      7997
      7991      7997      7994      7995      7991      7997      7994      7996
      7991      7997      7994      7998      7992      7991      7997      7994
      7993      7991      7997      7994      7994      7998      7999      8000
      7994      7998      7999      8001      7994      7998      7999      8002
      7995      7994      7998      7999      7996      7994      7998      7999
      7997      7994      7998      7999      7998      7999      8002      8003
      7998      7999      8002      8004      7998      7999      8002      8010
      7999      8002      8004      8005      7999      8002      8010      8011
      7999      8002      8010      8012      7999      8002      8010      8013
      8000      7999      8002      8003      8000      7999      8002      8004
      8000      7999      8002      8010      8001      7999      8002      8003
      8001      7999      8002      8004      8001      7999      8002      8010
      8002      8004      8005      8006      8002      8004      8005      8007
      8002      8010      8013      8014      8003      8002      8004      8005
      8003      8002      8010      8011      8003      8002      8010      8012
      8003      8002      8010      8013      8004      8002      8010      8011
      8004      8002      8010      8012      8004      8002      8010      8013
      8004      8005      8007      8008      8004      8005      8007      8009
      8004      8005      8007      8019      8005      8004      8002      8010
      8005      8007      8019      8020      8005      8007      8019      8021
      8005      8007      8019      8022      8006      8005      8007      8008
      8006      8005      8007      8009      8006      8005      8007      8019
      8007      8019      8022      8023      8007      8019      8022      8024
      8007      8019      8022      8025      8008      8007      8019      8020
      8008      8007      8019      8021      8008      8007      8019      8022
      8009      8007      8019      8020      8009      8007      8019      8021
      8009      8007      8019      8022      8010      8013      8014      8015
      8010      8013      8014      8016      8011      8010      8013      8014
      8012      8010      8013      8014      8013      8014      8016      8017
      8013      8014      8016      8018      8013      8014      8016      8066
      8014      8016      8066      8067      8014      8016      8066      8068
      8014      8016      8066      8069      8015      8014      8016      8017
      8015      8014      8016      8018      8015      8014      8016      8066
      8016      8066      8069      8070      8016      8066      8069      8071
      8016      8066      8069      8072      8017      8016      8066      8067
      8017      8016      8066      8068      8017      8016      8066      8069
      8018      8016      8066      8067      8018      8016      8066      8068
      8018      8016      8066      8069      8019      8022      8025      8026
      8019      8022      8025      8027      8019      8022      8025      8028
      8020      8019      8022      8023      8020      8019      8022      8024
      8020      8019      8022      8025      8021      8019      8022      8023
      8021      8019      8022      8024      8021      8019      8022      8025
      8022      8025      8028      8029      8022      8025      8028      8030
      8022      8025      8028      8031      8023      8022      8025      8026
      8023      8022      8025      8027      8023      8022      8025      8028
      8024      8022      8025      8026      8024      8022      8025      8027
      8024      8022      8025      8028      8025      8028      8031      8032
      8025      8028      8031      8033      8025      8028      8031      8034
      8026      8025      8028      8029      8026      8025      8028      8030
      8026      8025      8028      8031      8027      8025      8028      8029
      8027      8025      8028      8030      8027      8025      8028      8031
      8028      8031      8034      8035      8028      8031      8034      8036
      8028      8031      8034      8037      8029      8028      8031      8032
      8029      8028      8031      8033      8029      8028      8031      8034
      8030      8028      8031      8032      8030      8028      8031      8033
      8030      8028      8031      8034      8031      8034      8037      8038
      8031      8034      8037      8039      8032      8031      8034      8035
      8032      8031      8034      8036      8032      8031      8034      8037
      8033      8031      8034      8035      8033      8031      8034      8036
      8033      8031      8034      8037      8034      8037      8039      8040
      8034      8037      8039      8041      8035      8034      8037      8038
      8035      8034      8037      8039      8036      8034      8037      8038
      8036      8034      8037      8039      8037      8039      8041      8042
      8037      8039      8041      8043      8037      8039      8041      8044
      8038      8037      8039      8040      8038      8037      8039      8041
      8039      8041      8044      8045      8039      8041      8044      8046
      8039      8041      8044      8047      8040      8039      8041      8042
      8040      8039      8041      8043      8040      8039      8041      8044
      8041      8044      8047      8048      8041      8044      8047      8049
      8041      8044      8047      8050      8042      8041      8044      8045
      8042      8041      8044      8046      8042      8041      8044      8047
      8043      8041      8044      8045      8043      8041      8044      8046
      8043      8041      8044      8047      8044      8047      8050      8051
      8044      8047      8050      8052      8044      8047      8050      8053
      8045      8044      8047      8048      8045      8044      8047      8049
      8045      8044      8047      8050      8046      8044      8047      8048
      8046      8044      8047      8049      8046      8044      8047      8050
      8047      8050      8053      8054      8047      8050      8053      8055
      8047      8050      8053      8056      8048      8047      8050      8051
      8048      8047      8050      8052      8048      8047      8050      8053
      8049      8047      8050      8051      8049      8047      8050      8052
      8049      8047      8050      8053      8050      8053      8056      8057
      8050      8053      8056      8058      8050      8053      8056      8059
      8051      8050      8053      8054      8051      8050      8053      8055
      8051      8050      8053      8056      8052      8050      8053      8054
      8052      8050      8053      8055      8052      8050      8053      8056
      8053      8056      8059      8060      8053      8056      8059      8061
      8053      8056      8059      8062      8054      8053      8056      8057
      8054      8053      8056      8058      8054      8053      8056      8059
      8055      8053      8056      8057      8055      8053      8056      8058
      8055      8053      8056      8059      8056      8059      8062      8063
      8056      8059      8062      8064      8056      8059      8062      8065
      8057      8056      8059      8060      8057      8056      8059      8061
      8057      8056      8059      8062      8058      8056      8059      8060
      8058      8056      8059      8061      8058      8056      8059      8062
      8060      8059      8062      8063      8060      8059      8062      8064
      8060      8059      8062      8065      8061      8059      8062      8063
      8061      8059      8062      8064      8061      8059      8062      8065
      8066      8069      8072      8073      8066      8069      8072      8074
      8066      8069      8072      8075      8067      8066      8069      8070
      8067      8066      8069      8071      8067      8066      8069      8072
      8068      8066      8069      8070      8068      8066      8069      8071
      8068      8066      8069      8072      8069      8072      8075      8076
      8069      8072      8075      8077      8069      8072      8075      8078
      8070      8069      8072      8073      8070      8069      8072      8074
      8070      8069      8072      8075      8071      8069      8072      8073
      8071      8069      8072      8074      8071      8069      8072      8075
      8072      8075      8078      8079      8072      8075      8078      8080
      8072      8075      8078      8081      8073      8072      8075      8076
      8073      8072      8075      8077      8073      8072      8075      8078
      8074      8072      8075      8076      8074      8072      8075      8077
      8074      8072      8075      8078      8075      8078      8081      8082
      8075      8078      8081      8083      8075      8078      8081      8084
      8076      8075      8078      8079      8076      8075      8078      8080
      8076      8075      8078      8081      8077      8075      8078      8079
      8077      8075      8078      8080      8077      8075      8078      8081
      8078      8081      8084      8085      8078      8081      8084      8086
      8078      8081      8084      8087      8079      8078      8081      8082
      8079      8078      8081      8083      8079      8078      8081      8084
      8080      8078      8081      8082      8080      8078      8081      8083
      8080      8078      8081      8084      8081      8084      8087      8088
      8081      8084      8087      8089      8081      8084      8087      8090
      8082      8081      8084      8085      8082      8081      8084      8086
      8082      8081      8084      8087      8083      8081      8084      8085
      8083      8081      8084      8086      8083      8081      8084      8087
      8084      8087      8090      8091      8084      8087      8090      8092
      8084      8087      8090      8093      8085      8084      8087      8088
      8085      8084      8087      8089      8085      8084      8087      8090
      8086      8084      8087      8088      8086      8084      8087      8089
      8086      8084      8087      8090      8087      8090      8093      8094
      8087      8090      8093      8095      8087      8090      8093      8096
      8088      8087      8090      8091      8088      8087      8090      8092
      8088      8087      8090      8093      8089      8087      8090      8091
      8089      8087      8090      8092      8089      8087      8090      8093
      8090      8093      8096      8097      8090      8093      8096      8098
      8090      8093      8096      8099      8091      8090      8093      8094
      8091      8090      8093      8095      8091      8090      8093      8096
      8092      8090      8093      8094      8092      8090      8093      8095
      8092      8090      8093      8096      8093      8096      8099      8100
      8093      8096      8099      8101      8093      8096      8099      8102
      8094      8093      8096      8097      8094      8093      8096      8098
      8094      8093      8096      8099      8095      8093      8096      8097
      8095      8093      8096      8098      8095      8093      8096      8099
      8096      8099      8102      8103      8096      8099      8102      8104
      8096      8099      8102      8105      8097      8096      8099      8100
      8097      8096      8099      8101      8097      8096      8099      8102
      8098      8096      8099      8100      8098      8096      8099      8101
      8098      8096      8099      8102      8099      8102      8105      8106
      8099      8102      8105      8107      8099      8102      8105      8108
      8100      8099      8102      8103      8100      8099      8102      8104
      8100      8099      8102      8105      8101      8099      8102      8103
      8101      8099      8102      8104      8101      8099      8102      8105
      8102      8105      8108      8109      8102      8105      8108      8110
      8102      8105      8108      8111      8103      8102      8105      8106
      8103      8102      8105      8107      8103      8102      8105      8108
      8104      8102      8105      8106      8104      8102      8105      8107
      8104      8102      8105      8108      8105      8108      8111      8112
      8105      8108      8111      8113      8105      8108      8111      8114
      8106      8105      8108      8109      8106      8105      8108      8110
      8106      8105      8108      8111      8107      8105      8108      8109
      8107      8105      8108      8110      8107      8105      8108      8111
      8109      8108      8111      8112      8109      8108      8111      8113
      8109      8108      8111      8114      8110      8108      8111      8112
      8110      8108      8111      8113      8110      8108      8111      8114
     21413     21414     21429     21430     21413     21414     21429     21431
     21413     21414     21429     21435     21414     21413     21417     21418
     21414     21413     21417     21419     21414     21413     21417     21420
     21414     21413     21421     21422     21414     21413     21421     21423
     21414     21413     21421     21424     21414     21413     21425     21426
     21414     21413     21425     21427     21414     21413     21425     21428
     21414     21429     21435     21432     21415     21414     21413     21417
     21415     21414     21413     21421     21415     21414     21413     21425
     21415     21414     21429     21430     21415     21414     21429     21431
     21415     21414     21429     21435     21416     21414     21413     21417
     21416     21414     21413     21421     21416     21414     21413     21425
     21416     21414     21429     21430     21416     21414     21429     21431
     21416     21414     21429     21435     21417     21413     21414     21429
     21417     21413     21421     21422     21417     21413     21421     21423
     21417     21413     21421     21424     21417     21413     21425     21426
     21417     21413     21425     21427     21417     21413     21425     21428
     21418     21417     21413     21421     21418     21417     21413     21425
     21419     21417     21413     21421     21419     21417     21413     21425
     21420     21417     21413     21421     21420     21417     21413     21425
     21421     21413     21414     21429     21421     21413     21425     21426
     21421     21413     21425     21427     21421     21413     21425     21428
     21422     21421     21413     21425     21423     21421     21413     21425
     21424     21421     21413     21425     21425     21413     21414     21429
     21429     21435     21432     21433     21429     21435     21432     21434
     21429     21435     21432     21436     21430     21429     21435     21432
     21431     21429     21435     21432     21432     21436     21437     21438
     21432     21436     21437     21439     21432     21436     21437     21440
     21433     21432     21436     21437     21434     21432     21436     21437
     21435     21432     21436     21437     21436     21437     21440     21441
     21436     21437     21440     21442     21436     21437     21440     21448
     21437     21440     21442     21443     21437     21440     21448     21449
     21437     21440     21448     21450     21437     21440     21448     21451
     21438     21437     21440     21441     21438     21437     21440     21442
     21438     21437     21440     21448     21439     21437     21440     21441
     21439     21437     21440     21442     21439     21437     21440     21448
     21440     21442     21443     21444     21440     21442     21443     21445
     21440     21448     21451     21452     21441     21440     21442     21443
     21441     21440     21448     21449     21441     21440     21448     21450
     21441     21440     21448     21451     21442     21440     21448     21449
     21442     21440     21448     21450     21442     21440     21448     21451
     21442     21443     21445     21446     21442     21443     21445     21447
     21442     21443     21445     21457     21443     21442     21440     21448
     21443     21445     21457     21458     21443     21445     21457     21459
     21443     21445     21457     21460     21444     21443     21445     21446
     21444     21443     21445     21447     21444     21443     21445     21457
     21445     21457     21460     21461     21445     21457     21460     21462
     21445     21457     21460     21463     21446     21445     21457     21458
     21446     21445     21457     21459     21446     21445     21457     21460
     21447     21445     21457     21458     21447     21445     21457     21459
     21447     21445     21457     21460     21448     21451     21452     21453
     21448     21451     21452     21454     21449     21448     21451     21452
     21450     21448     21451     21452     21451     21452     21454     21455
     21451     21452     21454     21456     21451     21452     21454     21504
     21452     21454     21504     21505     21452     21454     21504     21506
     21452     21454     21504     21507     21453     21452     21454     21455
     21453     21452     21454     21456     21453     21452     21454     21504
     21454     21504     21507     21508     21454     21504     21507     21509
     21454     21504     21507     21510     21455     21454     21504     21505
     21455     21454     21504     21506     21455     21454     21504     21507
     21456     21454     21504     21505     21456     21454     21504     21506
     21456     21454     21504     21507     21457     21460     21463     21464
     21457     21460     21463     21465     21457     21460     21463     21466
     21458     21457     21460     21461     21458     21457     21460     21462
     21458     21457     21460     21463     21459     21457     21460     21461
     21459     21457     21460     21462     21459     21457     21460     21463
     21460     21463     21466     21467     21460     21463     21466     21468
     21460     21463     21466     21469     21461     21460     21463     21464
     21461     21460     21463     21465     21461     21460     21463     21466
     21462     21460     21463     21464     21462     21460     21463     21465
     21462     21460     21463     21466     21463     21466     21469     21470
     21463     21466     21469     21471     21463     21466     21469     21472
     21464     21463     21466     21467     21464     21463     21466     21468
     21464     21463     21466     21469     21465     21463     21466     21467
     21465     21463     21466     21468     21465     21463     21466     21469
     21466     21469     21472     21473     21466     21469     21472     21474
     21466     21469     21472     21475     21467     21466     21469     21470
     21467     21466     21469     21471     21467     21466     21469     21472
     21468     21466     21469     21470     21468     21466     21469     21471
     21468     21466     21469     21472     21469     21472     21475     21476
     21469     21472     21475     21477     21470     21469     21472     21473
     21470     21469     21472     21474     21470     21469     21472     21475
     21471     21469     21472     21473     21471     21469     21472     21474
     21471     21469     21472     21475     21472     21475     21477     21478
     21472     21475     21477     21479     21473     21472     21475     21476
     21473     21472     21475     21477     21474     21472     21475     21476
     21474     21472     21475     21477     21475     21477     21479     21480
     21475     21477     21479     21481     21475     21477     21479     21482
     21476     21475     21477     21478     21476     21475     21477     21479
     21477     21479     21482     21483     21477     21479     21482     21484
     21477     21479     21482     21485     21478     21477     21479     21480
     21478     21477     21479     21481     21478     21477     21479     21482
     21479     21482     21485     21486     21479     21482     21485     21487
     21479     21482     21485     21488     21480     21479     21482     21483
     21480     21479     21482     21484     21480     21479     21482     21485
     21481     21479     21482     21483     21481     21479     21482     21484
     21481     21479     21482     21485     21482     21485     21488     21489
     21482     21485     21488     21490     21482     21485     21488     21491
     21483     21482     21485     21486     21483     21482     21485     21487
     21483     21482     21485     21488     21484     21482     21485     21486
     21484     21482     21485     21487     21484     21482     21485     21488
     21485     21488     21491     21492     21485     21488     21491     21493
     21485     21488     21491     21494     21486     21485     21488     21489
     21486     21485     21488     21490     21486     21485     21488     21491
     21487     21485     21488     21489     21487     21485     21488     21490
     21487     21485     21488     21491     21488     21491     21494     21495
     21488     21491     21494     21496     21488     21491     21494     21497
     21489     21488     21491     21492     21489     21488     21491     21493
     21489     21488     21491     21494     21490     21488     21491     21492
     21490     21488     21491     21493     21490     21488     21491     21494
     21491     21494     21497     21498     21491     21494     21497     21499
     21491     21494     21497     21500     21492     21491     21494     21495
     21492     21491     21494     21496     21492     21491     21494     21497
     21493     21491     21494     21495     21493     21491     21494     21496
     21493     21491     21494     21497     21494     21497     21500     21501
     21494     21497     21500     21502     21494     21497     21500     21503
     21495     21494     21497     21498     21495     21494     21497     21499
     21495     21494     21497     21500     21496     21494     21497     21498
     21496     21494     21497     21499     21496     21494     21497     21500
     21498     21497     21500     21501     21498     21497     21500     21502
     21498     21497     21500     21503     21499     21497     21500     21501
     21499     21497     21500     21502     21499     21497     21500     21503
     21504     21507     21510     21511     21504     21507     21510     21512
     21504     21507     21510     21513     21505     21504     21507     21508
     21505     21504     21507     21509     21505     21504     21507     21510
     21506     21504     21507     21508     21506     21504     21507     21509
     21506     21504     21507     21510     21507     21510     21513     21514
     21507     21510     21513     21515     21507     21510     21513     21516
     21508     21507     21510     21511     21508     21507     21510     21512
     21508     21507     21510     21513     21509     21507     21510     21511
     21509     21507     21510     21512     21509     21507     21510     21513
     21510     21513     21516     21517     21510     21513     21516     21518
     21510     21513     21516     21519     21511     21510     21513     21514
     21511     21510     21513     21515     21511     21510     21513     21516
     21512     21510     21513     21514     21512     21510     21513     21515
     21512     21510     21513     21516     21513     21516     21519     21520
     21513     21516     21519     21521     21513     21516     21519     21522
     21514     21513     21516     21517     21514     21513     21516     21518
     21514     21513     21516     21519     21515     21513     21516     21517
     21515     21513     21516     21518     21515     21513     21516     21519
     21516     21519     21522     21523     21516     21519     21522     21524
     21516     21519     21522     21525     21517     21516     21519     21520
     21517     21516     21519     21521     21517     21516     21519     21522
     21518     21516     21519     21520     21518     21516     21519     21521
     21518     21516     21519     21522     21519     21522     21525     21526
     21519     21522     21525     21527     21519     21522     21525     21528
     21520     21519     21522     21523     21520     21519     21522     21524
     21520     21519     21522     21525     21521     21519     21522     21523
     21521     21519     21522     21524     21521     21519     21522     21525
     21522     21525     21528     21529     21522     21525     21528     21530
     21522     21525     21528     21531     21523     21522     21525     21526
     21523     21522     21525     21527     21523     21522     21525     21528
     21524     21522     21525     21526     21524     21522     21525     21527
     21524     21522     21525     21528     21525     21528     21531     21532
     21525     21528     21531     21533     21525     21528     21531     21534
     21526     21525     21528     21529     21526     21525     21528     21530
     21526     21525     21528     21531     21527     21525     21528     21529
     21527     21525     21528     21530     21527     21525     21528     21531
     21528     21531     21534     21535     21528     21531     21534     21536
     21528     21531     21534     21537     21529     21528     21531     21532
     21529     21528     21531     21533     21529     21528     21531     21534
     21530     21528     21531     21532     21530     21528     21531     21533
     21530     21528     21531     21534     21531     21534     21537     21538
     21531     21534     21537     21539     21531     21534     21537     21540
     21532     21531     21534     21535     21532     21531     21534     21536
     21532     21531     21534     21537     21533     21531     21534     21535
     21533     21531     21534     21536     21533     21531     21534     21537
     21534     21537     21540     21541     21534     21537     21540     21542
     21534     21537     21540     21543     21535     21534     21537     21538
     21535     21534     21537     21539     21535     21534     21537     21540
     21536     21534     21537     21538     21536     21534     21537     21539
     21536     21534     21537     21540     21537     21540     21543     21544
     21537     21540     21543     21545     21537     21540     21543     21546
     21538     21537     21540     21541     21538     21537     21540     21542
     21538     21537     21540     21543     21539     21537     21540     21541
     21539     21537     21540     21542     21539     21537     21540     21543
     21541     21540     21543     21544     21541     21540     21543     21545
     21541     21540     21543     21546     21542     21540     21543     21544
     21542     21540     21543     21545     21542     21540     21543     21546
     18310     18314     18317     18318     18310     18314     18317     18319
     18310     18314     18317     18323     18311     18310     18314     18315
     18311     18310     18314     18316     18311     18310     18314     18317
     18312     18310     18314     18315     18312     18310     18314     18316
     18312     18310     18314     18317     18313     18310     18314     18315
     18313     18310     18314     18316     18313     18310     18314     18317
     18314     18317     18323     18320     18315     18314     18317     18318
     18315     18314     18317     18319     18315     18314     18317     18323
     18316     18314     18317     18318     18316     18314     18317     18319
     18316     18314     18317     18323     18317     18323     18320     18321
     18317     18323     18320     18322     18317     18323     18320     18324
     18318     18317     18323     18320     18319     18317     18323     18320
     18320     18324     18325     18326     18320     18324     18325     18327
     18320     18324     18325     18328     18321     18320     18324     18325
     18322     18320     18324     18325     18323     18320     18324     18325
     18324     18325     18328     18329     18324     18325     18328     18330
     18324     18325     18328     18336     18325     18328     18330     18331
     18325     18328     18336     18337     18325     18328     18336     18338
     18325     18328     18336     18339     18326     18325     18328     18329
     18326     18325     18328     18330     18326     18325     18328     18336
     18327     18325     18328     18329     18327     18325     18328     18330
     18327     18325     18328     18336     18328     18330     18331     18332
     18328     18330     18331     18333     18328     18336     18339     18340
     18329     18328     18330     18331     18329     18328     18336     18337
     18329     18328     18336     18338     18329     18328     18336     18339
     18330     18328     18336     18337     18330     18328     18336     18338
     18330     18328     18336     18339     18330     18331     18333     18334
     18330     18331     18333     18335     18330     18331     18333     18345
     18331     18330     18328     18336     18331     18333     18345     18346
     18331     18333     18345     18347     18331     18333     18345     18348
     18332     18331     18333     18334     18332     18331     18333     18335
     18332     18331     18333     18345     18333     18345     18348     18349
     18333     18345     18348     18350     18333     18345     18348     18351
     18334     18333     18345     18346     18334     18333     18345     18347
     18334     18333     18345     18348     18335     18333     18345     18346
     18335     18333     18345     18347     18335     18333     18345     18348
     18336     18339     18340     18341     18336     18339     18340     18342
     18337     18336     18339     18340     18338     18336     18339     18340
     18339     18340     18342     18343     18339     18340     18342     18344
     18339     18340     18342     18392     18340     18342     18392     18393
     18340     18342     18392     18394     18340     18342     18392     18395
     18341     18340     18342     18343     18341     18340     18342     18344
     18341     18340     18342     18392     18342     18392     18395     18396
     18342     18392     18395     18397     18342     18392     18395     18398
     18343     18342     18392     18393     18343     18342     18392     18394
     18343     18342     18392     18395     18344     18342     18392     18393
     18344     18342     18392     18394     18344     18342     18392     18395
     18345     18348     18351     18352     18345     18348     18351     18353
     18346     18345     18348     18349     18346     18345     18348     18350
     18346     18345     18348     18351     18347     18345     18348     18349
     18347     18345     18348     18350     18347     18345     18348     18351
     18348     18351     18353     18354     18348     18351     18353     18355
     18349     18348     18351     18352     18349     18348     18351     18353
     18350     18348     18351     18352     18350     18348     18351     18353
     18351     18353     18355     18356     18351     18353     18355     18357
     18351     18353     18355     18358     18352     18351     18353     18354
     18352     18351     18353     18355     18353     18355     18358     18359
     18353     18355     18358     18360     18354     18353     18355     18356
     18354     18353     18355     18357     18354     18353     18355     18358
     18355     18358     18360     18361     18355     18358     18360     18362
     18356     18355     18358     18359     18356     18355     18358     18360
     18357     18355     18358     18359     18357     18355     18358     18360
     18358     18360     18362     18363     18358     18360     18362     18364
     18358     18360     18362     18365     18359     18358     18360     18361
     18359     18358     18360     18362     18360     18362     18365     18366
     18360     18362     18365     18367     18361     18360     18362     18363
     18361     18360     18362     18364     18361     18360     18362     18365
     18362     18365     18367     18368     18362     18365     18367     18369
     18363     18362     18365     18366     18363     18362     18365     18367
     18364     18362     18365     18366     18364     18362     18365     18367
     18365     18367     18369     18370     18365     18367     18369     18371
     18365     18367     18369     18372     18366     18365     18367     18368
     18366     18365     18367     18369     18367     18369     18372     18373
     18367     18369     18372     18374     18368     18367     18369     18370
     18368     18367     18369     18371     18368     18367     18369     18372
     18369     18372     18374     18375     18369     18372     18374     18376
     18370     18369     18372     18373     18370     18369     18372     18374
     18371     18369     18372     18373     18371     18369     18372     18374
     18372     18374     18376     18377     18372     18374     18376     18378
     18372     18374     18376     18379     18373     18372     18374     18375
     18373     18372     18374     18376     18374     18376     18379     18380
     18374     18376     18379     18381     18374     18376     18379     18382
     18375     18374     18376     18377     18375     18374     18376     18378
     18375     18374     18376     18379     18376     18379     18382     18383
     18376     18379     18382     18384     18376     18379     18382     18385
     18377     18376     18379     18380     18377     18376     18379     18381
     18377     18376     18379     18382     18378     18376     18379     18380
     18378     18376     18379     18381     18378     18376     18379     18382
     18379     18382     18385     18386     18379     18382     18385     18387
     18379     18382     18385     18388     18380     18379     18382     18383
     18380     18379     18382     18384     18380     18379     18382     18385
     18381     18379     18382     18383     18381     18379     18382     18384
     18381     18379     18382     18385     18382     18385     18388     18389
     18382     18385     18388     18390     18382     18385     18388     18391
     18383     18382     18385     18386     18383     18382     18385     18387
     18383     18382     18385     18388     18384     18382     18385     18386
     18384     18382     18385     18387     18384     18382     18385     18388
     18386     18385     18388     18389     18386     18385     18388     18390
     18386     18385     18388     18391     18387     18385     18388     18389
     18387     18385     18388     18390     18387     18385     18388     18391
     18392     18395     18398     18399     18392     18395     18398     18400
     18392     18395     18398     18401     18393     18392     18395     18396
     18393     18392     18395     18397     18393     18392     18395     18398
     18394     18392     18395     18396     18394     18392     18395     18397
     18394     18392     18395     18398     18395     18398     18401     18402
     18395     18398     18401     18403     18395     18398     18401     18404
     18396     18395     18398     18399     18396     18395     18398     18400
     18396     18395     18398     18401     18397     18395     18398     18399
     18397     18395     18398     18400     18397     18395     18398     18401
     18398     18401     18404     18405     18398     18401     18404     18406
     18398     18401     18404     18407     18399     18398     18401     18402
     18399     18398     18401     18403     18399     18398     18401     18404
     18400     18398     18401     18402     18400     18398     18401     18403
     18400     18398     18401     18404     18401     18404     18407     18408
     18401     18404     18407     18409     18401     18404     18407     18410
     18402     18401     18404     18405     18402     18401     18404     18406
     18402     18401     18404     18407     18403     18401     18404     18405
     18403     18401     18404     18406     18403     18401     18404     18407
     18404     18407     18410     18411     18404     18407     18410     18412
     18404     18407     18410     18413     18405     18404     18407     18408
     18405     18404     18407     18409     18405     18404     18407     18410
     18406     18404     18407     18408     18406     18404     18407     18409
     18406     18404     18407     18410     18407     18410     18413     18414
     18407     18410     18413     18415     18407     18410     18413     18416
     18408     18407     18410     18411     18408     18407     18410     18412
     18408     18407     18410     18413     18409     18407     18410     18411
     18409     18407     18410     18412     18409     18407     18410     18413
     18410     18413     18416     18417     18410     18413     18416     18418
     18410     18413     18416     18419     18411     18410     18413     18414
     18411     18410     18413     18415     18411     18410     18413     18416
     18412     18410     18413     18414     18412     18410     18413     18415
     18412     18410     18413     18416     18413     18416     18419     18420
     18413     18416     18419     18421     18413     18416     18419     18422
     18414     18413     18416     18417     18414     18413     18416     18418
     18414     18413     18416     18419     18415     18413     18416     18417
     18415     18413     18416     18418     18415     18413     18416     18419
     18416     18419     18422     18423     18416     18419     18422     18424
     18416     18419     18422     18425     18417     18416     18419     18420
     18417     18416     18419     18421     18417     18416     18419     18422
     18418     18416     18419     18420     18418     18416     18419     18421
     18418     18416     18419     18422     18419     18422     18425     18426
     18419     18422     18425     18427     18419     18422     18425     18428
     18420     18419     18422     18423     18420     18419     18422     18424
     18420     18419     18422     18425     18421     18419     18422     18423
     18421     18419     18422     18424     18421     18419     18422     18425
     18422     18425     18428     18429     18422     18425     18428     18430
     18422     18425     18428     18431     18423     18422     18425     18426
     18423     18422     18425     18427     18423     18422     18425     18428
     18424     18422     18425     18426     18424     18422     18425     18427
     18424     18422     18425     18428     18425     18428     18431     18432
     18425     18428     18431     18433     18425     18428     18431     18434
     18426     18425     18428     18429     18426     18425     18428     18430
     18426     18425     18428     18431     18427     18425     18428     18429
     18427     18425     18428     18430     18427     18425     18428     18431
     18428     18431     18434     18435     18428     18431     18434     18436
     18428     18431     18434     18437     18429     18428     18431     18432
     18429     18428     18431     18433     18429     18428     18431     18434
     18430     18428     18431     18432     18430     18428     18431     18433
     18430     18428     18431     18434     18431     18434     18437     18438
     18431     18434     18437     18439     18431     18434     18437     18440
     18432     18431     18434     18435     18432     18431     18434     18436
     18432     18431     18434     18437     18433     18431     18434     18435
     18433     18431     18434     18436     18433     18431     18434     18437
     18435     18434     18437     18438     18435     18434     18437     18439
     18435     18434     18437     18440     18436     18434     18437     18438
     18436     18434     18437     18439     18436     18434     18437     18440
      9637      9638      9653      9654      9637      9638      9653      9655
      9637      9638      9653      9659      9638      9637      9641      9642
      9638      9637      9641      9643      9638      9637      9641      9644
      9638      9637      9645      9646      9638      9637      9645      9647
      9638      9637      9645      9648      9638      9637      9649      9650
      9638      9637      9649      9651      9638      9637      9649      9652
      9638      9653      9659      9656      9639      9638      9637      9641
      9639      9638      9637      9645      9639      9638      9637      9649
      9639      9638      9653      9654      9639      9638      9653      9655
      9639      9638      9653      9659      9640      9638      9637      9641
      9640      9638      9637      9645      9640      9638      9637      9649
      9640      9638      9653      9654      9640      9638      9653      9655
      9640      9638      9653      9659      9641      9637      9638      9653
      9641      9637      9645      9646      9641      9637      9645      9647
      9641      9637      9645      9648      9641      9637      9649      9650
      9641      9637      9649      9651      9641      9637      9649      9652
      9642      9641      9637      9645      9642      9641      9637      9649
      9643      9641      9637      9645      9643      9641      9637      9649
      9644      9641      9637      9645      9644      9641      9637      9649
      9645      9637      9638      9653      9645      9637      9649      9650
      9645      9637      9649      9651      9645      9637      9649      9652
      9646      9645      9637      9649      9647      9645      9637      9649
      9648      9645      9637      9649      9649      9637      9638      9653
      9653      9659      9656      9657      9653      9659      9656      9658
      9653      9659      9656      9660      9654      9653      9659      9656
      9655      9653      9659      9656      9656      9660      9661      9662
      9656      9660      9661      9663      9656      9660      9661      9664
      9657      9656      9660      9661      9658      9656      9660      9661
      9659      9656      9660      9661      9660      9661      9664      9665
      9660      9661      9664      9666      9660      9661      9664      9672
      9661      9664      9666      9667      9661      9664      9672      9673
      9661      9664      9672      9674      9661      9664      9672      9675
      9662      9661      9664      9665      9662      9661      9664      9666
      9662      9661      9664      9672      9663      9661      9664      9665
      9663      9661      9664      9666      9663      9661      9664      9672
      9664      9666      9667      9668      9664      9666      9667      9669
      9664      9672      9675      9676      9665      9664      9666      9667
      9665      9664      9672      9673      9665      9664      9672      9674
      9665      9664      9672      9675      9666      9664      9672      9673
      9666      9664      9672      9674      9666      9664      9672      9675
      9666      9667      9669      9670      9666      9667      9669      9671
      9666      9667      9669      9681      9667      9666      9664      9672
      9667      9669      9681      9682      9667      9669      9681      9683
      9667      9669      9681      9684      9668      9667      9669      9670
      9668      9667      9669      9671      9668      9667      9669      9681
      9669      9681      9684      9685      9669      9681      9684      9686
      9669      9681      9684      9687      9670      9669      9681      9682
      9670      9669      9681      9683      9670      9669      9681      9684
      9671      9669      9681      9682      9671      9669      9681      9683
      9671      9669      9681      9684      9672      9675      9676      9677
      9672      9675      9676      9678      9673      9672      9675      9676
      9674      9672      9675      9676      9675      9676      9678      9679
      9675      9676      9678      9680      9675      9676      9678      9728
      9676      9678      9728      9729      9676      9678      9728      9730
      9676      9678      9728      9731      9677      9676      9678      9679
      9677      9676      9678      9680      9677      9676      9678      9728
      9678      9728      9731      9732      9678      9728      9731      9733
      9678      9728      9731      9734      9679      9678      9728      9729
      9679      9678      9728      9730      9679      9678      9728      9731
      9680      9678      9728      9729      9680      9678      9728      9730
      9680      9678      9728      9731      9681      9684      9687      9688
      9681      9684      9687      9689      9682      9681      9684      9685
      9682      9681      9684      9686      9682      9681      9684      9687
      9683      9681      9684      9685      9683      9681      9684      9686
      9683      9681      9684      9687      9684      9687      9689      9690
      9684      9687      9689      9691      9685      9684      9687      9688
      9685      9684      9687      9689      9686      9684      9687      9688
      9686      9684      9687      9689      9687      9689      9691      9692
      9687      9689      9691      9693      9687      9689      9691      9694
      9688      9687      9689      9690      9688      9687      9689      9691
      9689      9691      9694      9695      9689      9691      9694      9696
      9690      9689      9691      9692      9690      9689      9691      9693
      9690      9689      9691      9694      9691      9694      9696      9697
      9691      9694      9696      9698      9692      9691      9694      9695
      9692      9691      9694      9696      9693      9691      9694      9695
      9693      9691      9694      9696      9694      9696      9698      9699
      9694      9696      9698      9700      9694      9696      9698      9701
      9695      9694      9696      9697      9695      9694      9696      9698
      9696      9698      9701      9702      9696      9698      9701      9703
      9697      9696      9698      9699      9697      9696      9698      9700
      9697      9696      9698      9701      9698      9701      9703      9704
      9698      9701      9703      9705      9699      9698      9701      9702
      9699      9698      9701      9703      9700      9698      9701      9702
      9700      9698      9701      9703      9701      9703      9705      9706
      9701      9703      9705      9707      9701      9703      9705      9708
      9702      9701      9703      9704      9702      9701      9703      9705
      9703      9705      9708      9709      9703      9705      9708      9710
      9704      9703      9705      9706      9704      9703      9705      9707
      9704      9703      9705      9708      9705      9708      9710      9711
      9705      9708      9710      9712      9706      9705      9708      9709
      9706      9705      9708      9710      9707      9705      9708      9709
      9707      9705      9708      9710      9708      9710      9712      9713
      9708      9710      9712      9714      9708      9710      9712      9715
      9709      9708      9710      9711      9709      9708      9710      9712
      9710      9712      9715      9716      9710      9712      9715      9717
      9710      9712      9715      9718      9711      9710      9712      9713
      9711      9710      9712      9714      9711      9710      9712      9715
      9712      9715      9718      9719      9712      9715      9718      9720
      9712      9715      9718      9721      9713      9712      9715      9716
      9713      9712      9715      9717      9713      9712      9715      9718
      9714      9712      9715      9716      9714      9712      9715      9717
      9714      9712      9715      9718      9715      9718      9721      9722
      9715      9718      9721      9723      9715      9718      9721      9724
      9716      9715      9718      9719      9716      9715      9718      9720
      9716      9715      9718      9721      9717      9715      9718      9719
      9717      9715      9718      9720      9717      9715      9718      9721
      9718      9721      9724      9725      9718      9721      9724      9726
      9718      9721      9724      9727      9719      9718      9721      9722
      9719      9718      9721      9723      9719      9718      9721      9724
      9720      9718      9721      9722      9720      9718      9721      9723
      9720      9718      9721      9724      9722      9721      9724      9725
      9722      9721      9724      9726      9722      9721      9724      9727
      9723      9721      9724      9725      9723      9721      9724      9726
      9723      9721      9724      9727      9728      9731      9734      9735
      9728      9731      9734      9736      9728      9731      9734      9737
      9729      9728      9731      9732      9729      9728      9731      9733
      9729      9728      9731      9734      9730      9728      9731      9732
      9730      9728      9731      9733      9730      9728      9731      9734
      9731      9734      9737      9738      9731      9734      9737      9739
      9731      9734      9737      9740      9732      9731      9734      9735
      9732      9731      9734      9736      9732      9731      9734      9737
      9733      9731      9734      9735      9733      9731      9734      9736
      9733      9731      9734      9737      9734      9737      9740      9741
      9734      9737      9740      9742      9734      9737      9740      9743
      9735      9734      9737      9738      9735      9734      9737      9739
      9735      9734      9737      9740      9736      9734      9737      9738
      9736      9734      9737      9739      9736      9734      9737      9740
      9737      9740      9743      9744      9737      9740      9743      9745
      9737      9740      9743      9746      9738      9737      9740      9741
      9738      9737      9740      9742      9738      9737      9740      9743
      9739      9737      9740      9741      9739      9737      9740      9742
      9739      9737      9740      9743      9740      9743      9746      9747
      9740      9743      9746      9748      9740      9743      9746      9749
      9741      9740      9743      9744      9741      9740      9743      9745
      9741      9740      9743      9746      9742      9740      9743      9744
      9742      9740      9743      9745      9742      9740      9743      9746
      9743      9746      9749      9750      9743      9746      9749      9751
      9743      9746      9749      9752      9744      9743      9746      9747
      9744      9743      9746      9748      9744      9743      9746      9749
      9745      9743      9746      9747      9745      9743      9746      9748
      9745      9743      9746      9749      9746      9749      9752      9753
      9746      9749      9752      9754      9746      9749      9752      9755
      9747      9746      9749      9750      9747      9746      9749      9751
      9747      9746      9749      9752      9748      9746      9749      9750
      9748      9746      9749      9751      9748      9746      9749      9752
      9749      9752      9755      9756      9749      9752      9755      9757
      9749      9752      9755      9758      9750      9749      9752      9753
      9750      9749      9752      9754      9750      9749      9752      9755
      9751      9749      9752      9753      9751      9749      9752      9754
      9751      9749      9752      9755      9752      9755      9758      9759
      9752      9755      9758      9760      9752      9755      9758      9761
      9753      9752      9755      9756      9753      9752      9755      9757
      9753      9752      9755      9758      9754      9752      9755      9756
      9754      9752      9755      9757      9754      9752      9755      9758
      9755      9758      9761      9762      9755      9758      9761      9763
      9755      9758      9761      9764      9756      9755      9758      9759
      9756      9755      9758      9760      9756      9755      9758      9761
      9757      9755      9758      9759      9757      9755      9758      9760
      9757      9755      9758      9761      9758      9761      9764      9765
      9758      9761      9764      9766      9758      9761      9764      9767
      9759      9758      9761      9762      9759      9758      9761      9763
      9759      9758      9761      9764      9760      9758      9761      9762
      9760      9758      9761      9763      9760      9758      9761      9764
      9761      9764      9767      9768      9761      9764      9767      9769
      9761      9764      9767      9770      9762      9761      9764      9765
      9762      9761      9764      9766      9762      9761      9764      9767
      9763      9761      9764      9765      9763      9761      9764      9766
      9763      9761      9764      9767      9764      9767      9770      9771
      9764      9767      9770      9772      9764      9767      9770      9773
      9765      9764      9767      9768      9765      9764      9767      9769
      9765      9764      9767      9770      9766      9764      9767      9768
      9766      9764      9767      9769      9766      9764      9767      9770
      9767      9770      9773      9774      9767      9770      9773      9775
      9767      9770      9773      9776      9768      9767      9770      9771
      9768      9767      9770      9772      9768      9767      9770      9773
      9769      9767      9770      9771      9769      9767      9770      9772
      9769      9767      9770      9773      9771      9770      9773      9774
      9771      9770      9773      9775      9771      9770      9773      9776
      9772      9770      9773      9774      9772      9770      9773      9775
      9772      9770      9773      9776      2262      2266      2268      2269
      2262      2266      2268      2270      2262      2266      2271      2272
      2262      2266      2271      2273      2262      2266      2271      2277
      2263      2262      2266      2267      2263      2262      2266      2268
      2263      2262      2266      2271      2264      2262      2266      2267
      2264      2262      2266      2268      2264      2262      2266      2271
      2265      2262      2266      2267      2265      2262      2266      2268
      2265      2262      2266      2271      2266      2271      2277      2274
      2267      2266      2268      2269      2267      2266      2268      2270
      2267      2266      2271      2272      2267      2266      2271      2273
      2267      2266      2271      2277      2268      2266      2271      2272
      2268      2266      2271      2273      2268      2266      2271      2277
      2269      2268      2266      2271      2270      2268      2266      2271
      2271      2277      2274      2275      2271      2277      2274      2276
      2271      2277      2274      2278      2272      2271      2277      2274
      2273      2271      2277      2274      2274      2278      2279      2280
      2274      2278      2279      2281      2274      2278      2279      2282
      2275      2274      2278      2279      2276      2274      2278      2279
      2277      2274      2278      2279      2278      2279      2282      2283
      2278      2279      2282      2284      2278      2279      2282      2290
      2279      2282      2284      2285      2279      2282      2290      2291
      2279      2282      2290      2292      2279      2282      2290      2293
      2280      2279      2282      2283      2280      2279      2282      2284
      2280      2279      2282      2290      2281      2279      2282      2283
      2281      2279      2282      2284      2281      2279      2282      2290
      2282      2284      2285      2286      2282      2284      2285      2287
      2282      2290      2293      2294      2283      2282      2284      2285
      2283      2282      2290      2291      2283      2282      2290      2292
      2283      2282      2290      2293      2284      2282      2290      2291
      2284      2282      2290      2292      2284      2282      2290      2293
      2284      2285      2287      2288      2284      2285      2287      2289
      2284      2285      2287      2299      2285      2284      2282      2290
      2285      2287      2299      2300      2285      2287      2299      2301
      2285      2287      2299      2302      2286      2285      2287      2288
      2286      2285      2287      2289      2286      2285      2287      2299
      2287      2299      2302      2303      2287      2299      2302      2304
      2287      2299      2302      2305      2288      2287      2299      2300
      2288      2287      2299      2301      2288      2287      2299      2302
      2289      2287      2299      2300      2289      2287      2299      2301
      2289      2287      2299      2302      2290      2293      2294      2295
      2290      2293      2294      2296      2291      2290      2293      2294
      2292      2290      2293      2294      2293      2294      2296      2297
      2293      2294      2296      2298      2293      2294      2296      2346
      2294      2296      2346      2347      2294      2296      2346      2348
      2294      2296      2346      2349      2295      2294      2296      2297
      2295      2294      2296      2298      2295      2294      2296      2346
      2296      2346      2349      2350      2296      2346      2349      2351
      2296      2346      2349      2352      2297      2296      2346      2347
      2297      2296      2346      2348      2297      2296      2346      2349
      2298      2296      2346      2347      2298      2296      2346      2348
      2298      2296      2346      2349      2299      2302      2305      2306
      2299      2302      2305      2307      2300      2299      2302      2303
      2300      2299      2302      2304      2300      2299      2302      2305
      2301      2299      2302      2303      2301      2299      2302      2304
      2301      2299      2302      2305      2302      2305      2307      2308
      2302      2305      2307      2309      2303      2302      2305      2306
      2303      2302      2305      2307      2304      2302      2305      2306
      2304      2302      2305      2307      2305      2307      2309      2310
      2305      2307      2309      2311      2305      2307      2309      2312
      2306      2305      2307      2308      2306      2305      2307      2309
      2307      2309      2312      2313      2307      2309      2312      2314
      2308      2307      2309      2310      2308      2307      2309      2311
      2308      2307      2309      2312      2309      2312      2314      2315
      2309      2312      2314      2316      2310      2309      2312      2313
      2310      2309      2312      2314      2311      2309      2312      2313
      2311      2309      2312      2314      2312      2314      2316      2317
      2312      2314      2316      2318      2312      2314      2316      2319
      2313      2312      2314      2315      2313      2312      2314      2316
      2314      2316      2319      2320      2314      2316      2319      2321
      2315      2314      2316      2317      2315      2314      2316      2318
      2315      2314      2316      2319      2316      2319      2321      2322
      2316      2319      2321      2323      2317      2316      2319      2320
      2317      2316      2319      2321      2318      2316      2319      2320
      2318      2316      2319      2321      2319      2321      2323      2324
      2319      2321      2323      2325      2319      2321      2323      2326
      2320      2319      2321      2322      2320      2319      2321      2323
      2321      2323      2326      2327      2321      2323      2326      2328
      2322      2321      2323      2324      2322      2321      2323      2325
      2322      2321      2323      2326      2323      2326      2328      2329
      2323      2326      2328      2330      2324      2323      2326      2327
      2324      2323      2326      2328      2325      2323      2326      2327
      2325      2323      2326      2328      2326      2328      2330      2331
      2326      2328      2330      2332      2326      2328      2330      2333
      2327      2326      2328      2329      2327      2326      2328      2330
      2328      2330      2333      2334      2328      2330      2333      2335
      2328      2330      2333      2336      2329      2328      2330      2331
      2329      2328      2330      2332      2329      2328      2330      2333
      2330      2333      2336      2337      2330      2333      2336      2338
      2330      2333      2336      2339      2331      2330      2333      2334
      2331      2330      2333      2335      2331      2330      2333      2336
      2332      2330      2333      2334      2332      2330      2333      2335
      2332      2330      2333      2336      2333      2336      2339      2340
      2333      2336      2339      2341      2333      2336      2339      2342
      2334      2333      2336      2337      2334      2333      2336      2338
      2334      2333      2336      2339      2335      2333      2336      2337
      2335      2333      2336      2338      2335      2333      2336      2339
      2336      2339      2342      2343      2336      2339      2342      2344
      2336      2339      2342      2345      2337      2336      2339      2340
      2337      2336      2339      2341      2337      2336      2339      2342
      2338      2336      2339      2340      2338      2336      2339      2341
      2338      2336      2339      2342      2340      2339      2342      2343
      2340      2339      2342      2344      2340      2339      2342      2345
      2341      2339      2342      2343      2341      2339      2342      2344
      2341      2339      2342      2345      2346      2349      2352      2353
      2346      2349      2352      2354      2346      2349      2352      2355
      2347      2346      2349      2350      2347      2346      2349      2351
      2347      2346      2349      2352      2348      2346      2349      2350
      2348      2346      2349      2351      2348      2346      2349      2352
      2349      2352      2355      2356      2349      2352      2355      2357
      2349      2352      2355      2358      2350      2349      2352      2353
      2350      2349      2352      2354      2350      2349      2352      2355
      2351      2349      2352      2353      2351      2349      2352      2354
      2351      2349      2352      2355      2352      2355      2358      2359
      2352      2355      2358      2360      2352      2355      2358      2361
      2353      2352      2355      2356      2353      2352      2355      2357
      2353      2352      2355      2358      2354      2352      2355      2356
      2354      2352      2355      2357      2354      2352      2355      2358
      2355      2358      2361      2362      2355      2358      2361      2363
      2355      2358      2361      2364      2356      2355      2358      2359
      2356      2355      2358      2360      2356      2355      2358      2361
      2357      2355      2358      2359      2357      2355      2358      2360
      2357      2355      2358      2361      2358      2361      2364      2365
      2358      2361      2364      2366      2358      2361      2364      2367
      2359      2358      2361      2362      2359      2358      2361      2363
      2359      2358      2361      2364      2360      2358      2361      2362
      2360      2358      2361      2363      2360      2358      2361      2364
      2361      2364      2367      2368      2361      2364      2367      2369
      2361      2364      2367      2370      2362      2361      2364      2365
      2362      2361      2364      2366      2362      2361      2364      2367
      2363      2361      2364      2365      2363      2361      2364      2366
      2363      2361      2364      2367      2364      2367      2370      2371
      2364      2367      2370      2372      2364      2367      2370      2373
      2365      2364      2367      2368      2365      2364      2367      2369
      2365      2364      2367      2370      2366      2364      2367      2368
      2366      2364      2367      2369      2366      2364      2367      2370
      2367      2370      2373      2374      2367      2370      2373      2375
      2367      2370      2373      2376      2368      2367      2370      2371
      2368      2367      2370      2372      2368      2367      2370      2373
      2369      2367      2370      2371      2369      2367      2370      2372
      2369      2367      2370      2373      2370      2373      2376      2377
      2370      2373      2376      2378      2370      2373      2376      2379
      2371      2370      2373      2374      2371      2370      2373      2375
      2371      2370      2373      2376      2372      2370      2373      2374
      2372      2370      2373      2375      2372      2370      2373      2376
      2373      2376      2379      2380      2373      2376      2379      2381
      2373      2376      2379      2382      2374      2373      2376      2377
      2374      2373      2376      2378      2374      2373      2376      2379
      2375      2373      2376      2377      2375      2373      2376      2378
      2375      2373      2376      2379      2376      2379      2382      2383
      2376      2379      2382      2384      2376      2379      2382      2385
      2377      2376      2379      2380      2377      2376      2379      2381
      2377      2376      2379      2382      2378      2376      2379      2380
      2378      2376      2379      2381      2378      2376      2379      2382
      2379      2382      2385      2386      2379      2382      2385      2387
      2379      2382      2385      2388      2380      2379      2382      2383
      2380      2379      2382      2384      2380      2379      2382      2385
      2381      2379      2382      2383      2381      2379      2382      2384
      2381      2379      2382      2385      2382      2385      2388      2389
      2382      2385      2388      2390      2382      2385      2388      2391
      2383      2382      2385      2386      2383      2382      2385      2387
      2383      2382      2385      2388      2384      2382      2385      2386
      2384      2382      2385      2387      2384      2382      2385      2388
      2385      2388      2391      2392      2385      2388      2391      2393
      2385      2388      2391      2394      2386      2385      2388      2389
      2386      2385      2388      2390      2386      2385      2388      2391
      2387      2385      2388      2389      2387      2385      2388      2390
      2387      2385      2388      2391      2389      2388      2391      2392
      2389      2388      2391      2393      2389      2388      2391      2394
      2390      2388      2391      2392      2390      2388      2391      2393
      2390      2388      2391      2394     22110     22114     22116     22117
     22110     22114     22118     22119     22110     22114     22118     22120
     22110     22114     22118     22122     22110     22130     22126     22122
     22110     22130     22126     22127     22110     22130     22126     22128
     22110     22130     22135     22132     22111     22110     22112     22113
     22111     22110     22114     22115     22111     22110     22114     22116
     22111     22110     22114     22118     22111     22110     22130     22126
     22111     22110     22130     22131     22111     22110     22130     22135
     22112     22110     22114     22115     22112     22110     22114     22116
     22112     22110     22114     22118     22112     22110     22130     22126
     22112     22110     22130     22131     22112     22110     22130     22135
     22113     22112     22110     22114     22113     22112     22110     22130
     22114     22110     22130     22126     22114     22110     22130     22131
     22114     22110     22130     22135     22114     22118     22120     22121
     22114     22118     22122     22123     22114     22118     22122     22124
     22114     22118     22122     22126     22115     22114     22110     22130
     22115     22114     22116     22117     22115     22114     22118     22119
     22115     22114     22118     22120     22115     22114     22118     22122
     22116     22114     22110     22130     22116     22114     22118     22119
     22116     22114     22118     22120     22116     22114     22118     22122
     22117     22116     22114     22118     22118     22114     22110     22130
     22118     22122     22124     22125     22118     22122     22126     22127
     22118     22122     22126     22128     22118     22122     22126     22130
     22119     22118     22120     22121     22119     22118     22122     22123
     22119     22118     22122     22124     22119     22118     22122     22126
     22120     22118     22122     22123     22120     22118     22122     22124
     22120     22118     22122     22126     22121     22120     22118     22122
     22122     22126     22128     22129     22122     22126     22130     22131
     22122     22126     22130     22135     22123     22122     22124     22125
     22123     22122     22126     22127     22123     22122     22126     22128
     22123     22122     22126     22130     22124     22122     22126     22127
     22124     22122     22126     22128     22124     22122     22126     22130
     22125     22124     22122     22126     22126     22130     22135     22132
     22127     22126     22128     22129     22127     22126     22130     22131
     22127     22126     22130     22135     22128     22126     22130     22131
     22128     22126     22130     22135     22129     22128     22126     22130
     22130     22135     22132     22133     22130     22135     22132     22134
     22130     22135     22132     22136     22131     22130     22135     22132
     22132     22136     22137     22138     22132     22136     22137     22139
     22132     22136     22137     22140     22133     22132     22136     22137
     22134     22132     22136     22137     22135     22132     22136     22137
     22136     22137     22140     22141     22136     22137     22140     22142
     22136     22137     22140     22148     22137     22140     22142     22143
     22137     22140     22148     22149     22137     22140     22148     22150
     22137     22140     22148     22151     22138     22137     22140     22141
     22138     22137     22140     22142     22138     22137     22140     22148
     22139     22137     22140     22141     22139     22137     22140     22142
     22139     22137     22140     22148     22140     22142     22143     22144
     22140     22142     22143     22145     22140     22148     22151     22152
     22141     22140     22142     22143     22141     22140     22148     22149
     22141     22140     22148     22150     22141     22140     22148     22151
     22142     22140     22148     22149     22142     22140     22148     22150
     22142     22140     22148     22151     22142     22143     22145     22146
     22142     22143     22145     22147     22142     22143     22145     22157
     22143     22142     22140     22148     22143     22145     22157     22158
     22143     22145     22157     22159     22143     22145     22157     22160
     22144     22143     22145     22146     22144     22143     22145     22147
     22144     22143     22145     22157     22145     22157     22160     22161
     22145     22157     22160     22162     22145     22157     22160     22163
     22146     22145     22157     22158     22146     22145     22157     22159
     22146     22145     22157     22160     22147     22145     22157     22158
     22147     22145     22157     22159     22147     22145     22157     22160
     22148     22151     22152     22153     22148     22151     22152     22154
     22149     22148     22151     22152     22150     22148     22151     22152
     22151     22152     22154     22155     22151     22152     22154     22156
     22151     22152     22154     22204     22152     22154     22204     22205
     22152     22154     22204     22206     22152     22154     22204     22207
     22153     22152     22154     22155     22153     22152     22154     22156
     22153     22152     22154     22204     22154     22204     22207     22208
     22154     22204     22207     22209     22154     22204     22207     22210
     22155     22154     22204     22205     22155     22154     22204     22206
     22155     22154     22204     22207     22156     22154     22204     22205
     22156     22154     22204     22206     22156     22154     22204     22207
     22157     22160     22163     22164     22157     22160     22163     22165
     22158     22157     22160     22161     22158     22157     22160     22162
     22158     22157     22160     22163     22159     22157     22160     22161
     22159     22157     22160     22162     22159     22157     22160     22163
     22160     22163     22165     22166     22160     22163     22165     22167
     22161     22160     22163     22164     22161     22160     22163     22165
     22162     22160     22163     22164     22162     22160     22163     22165
     22163     22165     22167     22168     22163     22165     22167     22169
     22163     22165     22167     22170     22164     22163     22165     22166
     22164     22163     22165     22167     22165     22167     22170     22171
     22165     22167     22170     22172     22166     22165     22167     22168
     22166     22165     22167     22169     22166     22165     22167     22170
     22167     22170     22172     22173     22167     22170     22172     22174
     22168     22167     22170     22171     22168     22167     22170     22172
     22169     22167     22170     22171     22169     22167     22170     22172
     22170     22172     22174     22175     22170     22172     22174     22176
     22170     22172     22174     22177     22171     22170     22172     22173
     22171     22170     22172     22174     22172     22174     22177     22178
     22172     22174     22177     22179     22173     22172     22174     22175
     22173     22172     22174     22176     22173     22172     22174     22177
     22174     22177     22179     22180     22174     22177     22179     22181
     22175     22174     22177     22178     22175     22174     22177     22179
     22176     22174     22177     22178     22176     22174     22177     22179
     22177     22179     22181     22182     22177     22179     22181     22183
     22177     22179     22181     22184     22178     22177     22179     22180
     22178     22177     22179     22181     22179     22181     22184     22185
     22179     22181     22184     22186     22180     22179     22181     22182
     22180     22179     22181     22183     22180     22179     22181     22184
     22181     22184     22186     22187     22181     22184     22186     22188
     22182     22181     22184     22185     22182     22181     22184     22186
     22183     22181     22184     22185     22183     22181     22184     22186
     22184     22186     22188     22189     22184     22186     22188     22190
     22184     22186     22188     22191     22185     22184     22186     22187
     22185     22184     22186     22188     22186     22188     22191     22192
     22186     22188     22191     22193     22186     22188     22191     22194
     22187     22186     22188     22189     22187     22186     22188     22190
     22187     22186     22188     22191     22188     22191     22194     22195
     22188     22191     22194     22196     22188     22191     22194     22197
     22189     22188     22191     22192     22189     22188     22191     22193
     22189     22188     22191     22194     22190     22188     22191     22192
     22190     22188     22191     22193     22190     22188     22191     22194
     22191     22194     22197     22198     22191     22194     22197     22199
     22191     22194     22197     22200     22192     22191     22194     22195
     22192     22191     22194     22196     22192     22191     22194     22197
     22193     22191     22194     22195     22193     22191     22194     22196
     22193     22191     22194     22197     22194     22197     22200     22201
     22194     22197     22200     22202     22194     22197     22200     22203
     22195     22194     22197     22198     22195     22194     22197     22199
     22195     22194     22197     22200     22196     22194     22197     22198
     22196     22194     22197     22199     22196     22194     22197     22200
     22198     22197     22200     22201     22198     22197     22200     22202
     22198     22197     22200     22203     22199     22197     22200     22201
     22199     22197     22200     22202     22199     22197     22200     22203
     22204     22207     22210     22211     22204     22207     22210     22212
     22204     22207     22210     22213     22205     22204     22207     22208
     22205     22204     22207     22209     22205     22204     22207     22210
     22206     22204     22207     22208     22206     22204     22207     22209
     22206     22204     22207     22210     22207     22210     22213     22214
     22207     22210     22213     22215     22207     22210     22213     22216
     22208     22207     22210     22211     22208     22207     22210     22212
     22208     22207     22210     22213     22209     22207     22210     22211
     22209     22207     22210     22212     22209     22207     22210     22213
     22210     22213     22216     22217     22210     22213     22216     22218
     22210     22213     22216     22219     22211     22210     22213     22214
     22211     22210     22213     22215     22211     22210     22213     22216
     22212     22210     22213     22214     22212     22210     22213     22215
     22212     22210     22213     22216     22213     22216     22219     22220
     22213     22216     22219     22221     22213     22216     22219     22222
     22214     22213     22216     22217     22214     22213     22216     22218
     22214     22213     22216     22219     22215     22213     22216     22217
     22215     22213     22216     22218     22215     22213     22216     22219
     22216     22219     22222     22223     22216     22219     22222     22224
     22216     22219     22222     22225     22217     22216     22219     22220
     22217     22216     22219     22221     22217     22216     22219     22222
     22218     22216     22219     22220     22218     22216     22219     22221
     22218     22216     22219     22222     22219     22222     22225     22226
     22219     22222     22225     22227     22219     22222     22225     22228
     22220     22219     22222     22223     22220     22219     22222     22224
     22220     22219     22222     22225     22221     22219     22222     22223
     22221     22219     22222     22224     22221     22219     22222     22225
     22222     22225     22228     22229     22222     22225     22228     22230
     22222     22225     22228     22231     22223     22222     22225     22226
     22223     22222     22225     22227     22223     22222     22225     22228
     22224     22222     22225     22226     22224     22222     22225     22227
     22224     22222     22225     22228     22225     22228     22231     22232
     22225     22228     22231     22233     22225     22228     22231     22234
     22226     22225     22228     22229     22226     22225     22228     22230
     22226     22225     22228     22231     22227     22225     22228     22229
     22227     22225     22228     22230     22227     22225     22228     22231
     22228     22231     22234     22235     22228     22231     22234     22236
     22228     22231     22234     22237     22229     22228     22231     22232
     22229     22228     22231     22233     22229     22228     22231     22234
     22230     22228     22231     22232     22230     22228     22231     22233
     22230     22228     22231     22234     22231     22234     22237     22238
     22231     22234     22237     22239     22231     22234     22237     22240
     22232     22231     22234     22235     22232     22231     22234     22236
     22232     22231     22234     22237     22233     22231     22234     22235
     22233     22231     22234     22236     22233     22231     22234     22237
     22234     22237     22240     22241     22234     22237     22240     22242
     22234     22237     22240     22243     22235     22234     22237     22238
     22235     22234     22237     22239     22235     22234     22237     22240
     22236     22234     22237     22238     22236     22234     22237     22239
     22236     22234     22237     22240     22237     22240     22243     22244
     22237     22240     22243     22245     22237     22240     22243     22246
     22238     22237     22240     22241     22238     22237     22240     22242
     22238     22237     22240     22243     22239     22237     22240     22241
     22239     22237     22240     22242     22239     22237     22240     22243
     22240     22243     22246     22247     22240     22243     22246     22248
     22240     22243     22246     22249     22241     22240     22243     22244
     22241     22240     22243     22245     22241     22240     22243     22246
     22242     22240     22243     22244     22242     22240     22243     22245
     22242     22240     22243     22246     22243     22246     22249     22250
     22243     22246     22249     22251     22243     22246     22249     22252
     22244     22243     22246     22247     22244     22243     22246     22248
     22244     22243     22246     22249     22245     22243     22246     22247
     22245     22243     22246     22248     22245     22243     22246     22249
     22247     22246     22249     22250     22247     22246     22249     22251
     22247     22246     22249     22252     22248     22246     22249     22250
     22248     22246     22249     22251     22248     22246     22249     22252
     18441     18445     18448     18449     18441     18445     18448     18450
     18441     18445     18448     18454     18442     18441     18445     18446
     18442     18441     18445     18447     18442     18441     18445     18448
     18443     18441     18445     18446     18443     18441     18445     18447
     18443     18441     18445     18448     18444     18441     18445     18446
     18444     18441     18445     18447     18444     18441     18445     18448
     18445     18448     18454     18451     18446     18445     18448     18449
     18446     18445     18448     18450     18446     18445     18448     18454
     18447     18445     18448     18449     18447     18445     18448     18450
     18447     18445     18448     18454     18448     18454     18451     18452
     18448     18454     18451     18453     18448     18454     18451     18455
     18449     18448     18454     18451     18450     18448     18454     18451
     18451     18455     18456     18457     18451     18455     18456     18458
     18451     18455     18456     18459     18452     18451     18455     18456
     18453     18451     18455     18456     18454     18451     18455     18456
     18455     18456     18459     18460     18455     18456     18459     18461
     18455     18456     18459     18467     18456     18459     18461     18462
     18456     18459     18467     18468     18456     18459     18467     18469
     18456     18459     18467     18470     18457     18456     18459     18460
     18457     18456     18459     18461     18457     18456     18459     18467
     18458     18456     18459     18460     18458     18456     18459     18461
     18458     18456     18459     18467     18459     18461     18462     18463
     18459     18461     18462     18464     18459     18467     18470     18471
     18460     18459     18461     18462     18460     18459     18467     18468
     18460     18459     18467     18469     18460     18459     18467     18470
     18461     18459     18467     18468     18461     18459     18467     18469
     18461     18459     18467     18470     18461     18462     18464     18465
     18461     18462     18464     18466     18461     18462     18464     18476
     18462     18461     18459     18467     18462     18464     18476     18477
     18462     18464     18476     18478     18462     18464     18476     18479
     18463     18462     18464     18465     18463     18462     18464     18466
     18463     18462     18464     18476     18464     18476     18479     18480
     18464     18476     18479     18481     18464     18476     18479     18482
     18465     18464     18476     18477     18465     18464     18476     18478
     18465     18464     18476     18479     18466     18464     18476     18477
     18466     18464     18476     18478     18466     18464     18476     18479
     18467     18470     18471     18472     18467     18470     18471     18473
     18468     18467     18470     18471     18469     18467     18470     18471
     18470     18471     18473     18474     18470     18471     18473     18475
     18470     18471     18473     18523     18471     18473     18523     18524
     18471     18473     18523     18525     18471     18473     18523     18526
     18472     18471     18473     18474     18472     18471     18473     18475
     18472     18471     18473     18523     18473     18523     18526     18527
     18473     18523     18526     18528     18473     18523     18526     18529
     18474     18473     18523     18524     18474     18473     18523     18525
     18474     18473     18523     18526     18475     18473     18523     18524
     18475     18473     18523     18525     18475     18473     18523     18526
     18476     18479     18482     18483     18476     18479     18482     18484
     18477     18476     18479     18480     18477     18476     18479     18481
     18477     18476     18479     18482     18478     18476     18479     18480
     18478     18476     18479     18481     18478     18476     18479     18482
     18479     18482     18484     18485     18479     18482     18484     18486
     18480     18479     18482     18483     18480     18479     18482     18484
     18481     18479     18482     18483     18481     18479     18482     18484
     18482     18484     18486     18487     18482     18484     18486     18488
     18482     18484     18486     18489     18483     18482     18484     18485
     18483     18482     18484     18486     18484     18486     18489     18490
     18484     18486     18489     18491     18485     18484     18486     18487
     18485     18484     18486     18488     18485     18484     18486     18489
     18486     18489     18491     18492     18486     18489     18491     18493
     18487     18486     18489     18490     18487     18486     18489     18491
     18488     18486     18489     18490     18488     18486     18489     18491
     18489     18491     18493     18494     18489     18491     18493     18495
     18489     18491     18493     18496     18490     18489     18491     18492
     18490     18489     18491     18493     18491     18493     18496     18497
     18491     18493     18496     18498     18492     18491     18493     18494
     18492     18491     18493     18495     18492     18491     18493     18496
     18493     18496     18498     18499     18493     18496     18498     18500
     18494     18493     18496     18497     18494     18493     18496     18498
     18495     18493     18496     18497     18495     18493     18496     18498
     18496     18498     18500     18501     18496     18498     18500     18502
     18496     18498     18500     18503     18497     18496     18498     18499
     18497     18496     18498     18500     18498     18500     18503     18504
     18498     18500     18503     18505     18499     18498     18500     18501
     18499     18498     18500     18502     18499     18498     18500     18503
     18500     18503     18505     18506     18500     18503     18505     18507
     18501     18500     18503     18504     18501     18500     18503     18505
     18502     18500     18503     18504     18502     18500     18503     18505
     18503     18505     18507     18508     18503     18505     18507     18509
     18503     18505     18507     18510     18504     18503     18505     18506
     18504     18503     18505     18507     18505     18507     18510     18511
     18505     18507     18510     18512     18505     18507     18510     18513
     18506     18505     18507     18508     18506     18505     18507     18509
     18506     18505     18507     18510     18507     18510     18513     18514
     18507     18510     18513     18515     18507     18510     18513     18516
     18508     18507     18510     18511     18508     18507     18510     18512
     18508     18507     18510     18513     18509     18507     18510     18511
     18509     18507     18510     18512     18509     18507     18510     18513
     18510     18513     18516     18517     18510     18513     18516     18518
     18510     18513     18516     18519     18511     18510     18513     18514
     18511     18510     18513     18515     18511     18510     18513     18516
     18512     18510     18513     18514     18512     18510     18513     18515
     18512     18510     18513     18516     18513     18516     18519     18520
     18513     18516     18519     18521     18513     18516     18519     18522
     18514     18513     18516     18517     18514     18513     18516     18518
     18514     18513     18516     18519     18515     18513     18516     18517
     18515     18513     18516     18518     18515     18513     18516     18519
     18517     18516     18519     18520     18517     18516     18519     18521
     18517     18516     18519     18522     18518     18516     18519     18520
     18518     18516     18519     18521     18518     18516     18519     18522
     18523     18526     18529     18530     18523     18526     18529     18531
     18523     18526     18529     18532     18524     18523     18526     18527
     18524     18523     18526     18528     18524     18523     18526     18529
     18525     18523     18526     18527     18525     18523     18526     18528
     18525     18523     18526     18529     18526     18529     18532     18533
     18526     18529     18532     18534     18526     18529     18532     18535
     18527     18526     18529     18530     18527     18526     18529     18531
     18527     18526     18529     18532     18528     18526     18529     18530
     18528     18526     18529     18531     18528     18526     18529     18532
     18529     18532     18535     18536     18529     18532     18535     18537
     18529     18532     18535     18538     18530     18529     18532     18533
     18530     18529     18532     18534     18530     18529     18532     18535
     18531     18529     18532     18533     18531     18529     18532     18534
     18531     18529     18532     18535     18532     18535     18538     18539
     18532     18535     18538     18540     18532     18535     18538     18541
     18533     18532     18535     18536     18533     18532     18535     18537
     18533     18532     18535     18538     18534     18532     18535     18536
     18534     18532     18535     18537     18534     18532     18535     18538
     18535     18538     18541     18542     18535     18538     18541     18543
     18535     18538     18541     18544     18536     18535     18538     18539
     18536     18535     18538     18540     18536     18535     18538     18541
     18537     18535     18538     18539     18537     18535     18538     18540
     18537     18535     18538     18541     18538     18541     18544     18545
     18538     18541     18544     18546     18538     18541     18544     18547
     18539     18538     18541     18542     18539     18538     18541     18543
     18539     18538     18541     18544     18540     18538     18541     18542
     18540     18538     18541     18543     18540     18538     18541     18544
     18541     18544     18547     18548     18541     18544     18547     18549
     18541     18544     18547     18550     18542     18541     18544     18545
     18542     18541     18544     18546     18542     18541     18544     18547
     18543     18541     18544     18545     18543     18541     18544     18546
     18543     18541     18544     18547     18544     18547     18550     18551
     18544     18547     18550     18552     18544     18547     18550     18553
     18545     18544     18547     18548     18545     18544     18547     18549
     18545     18544     18547     18550     18546     18544     18547     18548
     18546     18544     18547     18549     18546     18544     18547     18550
     18547     18550     18553     18554     18547     18550     18553     18555
     18547     18550     18553     18556     18548     18547     18550     18551
     18548     18547     18550     18552     18548     18547     18550     18553
     18549     18547     18550     18551     18549     18547     18550     18552
     18549     18547     18550     18553     18550     18553     18556     18557
     18550     18553     18556     18558     18550     18553     18556     18559
     18551     18550     18553     18554     18551     18550     18553     18555
     18551     18550     18553     18556     18552     18550     18553     18554
     18552     18550     18553     18555     18552     18550     18553     18556
     18553     18556     18559     18560     18553     18556     18559     18561
     18553     18556     18559     18562     18554     18553     18556     18557
     18554     18553     18556     18558     18554     18553     18556     18559
     18555     18553     18556     18557     18555     18553     18556     18558
     18555     18553     18556     18559     18556     18559     18562     18563
     18556     18559     18562     18564     18556     18559     18562     18565
     18557     18556     18559     18560     18557     18556     18559     18561
     18557     18556     18559     18562     18558     18556     18559     18560
     18558     18556     18559     18561     18558     18556     18559     18562
     18559     18562     18565     18566     18559     18562     18565     18567
     18559     18562     18565     18568     18560     18559     18562     18563
     18560     18559     18562     18564     18560     18559     18562     18565
     18561     18559     18562     18563     18561     18559     18562     18564
     18561     18559     18562     18565     18562     18565     18568     18569
     18562     18565     18568     18570     18562     18565     18568     18571
     18563     18562     18565     18566     18563     18562     18565     18567
     18563     18562     18565     18568     18564     18562     18565     18566
     18564     18562     18565     18567     18564     18562     18565     18568
     18566     18565     18568     18569     18566     18565     18568     18570
     18566     18565     18568     18571     18567     18565     18568     18569
     18567     18565     18568     18570     18567     18565     18568     18571
     18572     18576     18579     18580     18572     18576     18579     18581
     18572     18576     18579     18585     18573     18572     18576     18577
     18573     18572     18576     18578     18573     18572     18576     18579
     18574     18572     18576     18577     18574     18572     18576     18578
     18574     18572     18576     18579     18575     18572     18576     18577
     18575     18572     18576     18578     18575     18572     18576     18579
     18576     18579     18585     18582     18577     18576     18579     18580
     18577     18576     18579     18581     18577     18576     18579     18585
     18578     18576     18579     18580     18578     18576     18579     18581
     18578     18576     18579     18585     18579     18585     18582     18583
     18579     18585     18582     18584     18579     18585     18582     18586
     18580     18579     18585     18582     18581     18579     18585     18582
     18582     18586     18587     18588     18582     18586     18587     18589
     18582     18586     18587     18590     18583     18582     18586     18587
     18584     18582     18586     18587     18585     18582     18586     18587
     18586     18587     18590     18591     18586     18587     18590     18592
     18586     18587     18590     18598     18587     18590     18592     18593
     18587     18590     18598     18599     18587     18590     18598     18600
     18587     18590     18598     18601     18588     18587     18590     18591
     18588     18587     18590     18592     18588     18587     18590     18598
     18589     18587     18590     18591     18589     18587     18590     18592
     18589     18587     18590     18598     18590     18592     18593     18594
     18590     18592     18593     18595     18590     18598     18601     18602
     18591     18590     18592     18593     18591     18590     18598     18599
     18591     18590     18598     18600     18591     18590     18598     18601
     18592     18590     18598     18599     18592     18590     18598     18600
     18592     18590     18598     18601     18592     18593     18595     18596
     18592     18593     18595     18597     18592     18593     18595     18607
     18593     18592     18590     18598     18593     18595     18607     18608
     18593     18595     18607     18609     18593     18595     18607     18610
     18594     18593     18595     18596     18594     18593     18595     18597
     18594     18593     18595     18607     18595     18607     18610     18611
     18595     18607     18610     18612     18595     18607     18610     18613
     18596     18595     18607     18608     18596     18595     18607     18609
     18596     18595     18607     18610     18597     18595     18607     18608
     18597     18595     18607     18609     18597     18595     18607     18610
     18598     18601     18602     18603     18598     18601     18602     18604
     18599     18598     18601     18602     18600     18598     18601     18602
     18601     18602     18604     18605     18601     18602     18604     18606
     18601     18602     18604     18654     18602     18604     18654     18655
     18602     18604     18654     18656     18602     18604     18654     18657
     18603     18602     18604     18605     18603     18602     18604     18606
     18603     18602     18604     18654     18604     18654     18657     18658
     18604     18654     18657     18659     18604     18654     18657     18660
     18605     18604     18654     18655     18605     18604     18654     18656
     18605     18604     18654     18657     18606     18604     18654     18655
     18606     18604     18654     18656     18606     18604     18654     18657
     18607     18610     18613     18614     18607     18610     18613     18615
     18608     18607     18610     18611     18608     18607     18610     18612
     18608     18607     18610     18613     18609     18607     18610     18611
     18609     18607     18610     18612     18609     18607     18610     18613
     18610     18613     18615     18616     18610     18613     18615     18617
     18611     18610     18613     18614     18611     18610     18613     18615
     18612     18610     18613     18614     18612     18610     18613     18615
     18613     18615     18617     18618     18613     18615     18617     18619
     18613     18615     18617     18620     18614     18613     18615     18616
     18614     18613     18615     18617     18615     18617     18620     18621
     18615     18617     18620     18622     18616     18615     18617     18618
     18616     18615     18617     18619     18616     18615     18617     18620
     18617     18620     18622     18623     18617     18620     18622     18624
     18618     18617     18620     18621     18618     18617     18620     18622
     18619     18617     18620     18621     18619     18617     18620     18622
     18620     18622     18624     18625     18620     18622     18624     18626
     18620     18622     18624     18627     18621     18620     18622     18623
     18621     18620     18622     18624     18622     18624     18627     18628
     18622     18624     18627     18629     18623     18622     18624     18625
     18623     18622     18624     18626     18623     18622     18624     18627
     18624     18627     18629     18630     18624     18627     18629     18631
     18625     18624     18627     18628     18625     18624     18627     18629
     18626     18624     18627     18628     18626     18624     18627     18629
     18627     18629     18631     18632     18627     18629     18631     18633
     18627     18629     18631     18634     18628     18627     18629     18630
     18628     18627     18629     18631     18629     18631     18634     18635
     18629     18631     18634     18636     18630     18629     18631     18632
     18630     18629     18631     18633     18630     18629     18631     18634
     18631     18634     18636     18637     18631     18634     18636     18638
     18632     18631     18634     18635     18632     18631     18634     18636
     18633     18631     18634     18635     18633     18631     18634     18636
     18634     18636     18638     18639     18634     18636     18638     18640
     18634     18636     18638     18641     18635     18634     18636     18637
     18635     18634     18636     18638     18636     18638     18641     18642
     18636     18638     18641     18643     18636     18638     18641     18644
     18637     18636     18638     18639     18637     18636     18638     18640
     18637     18636     18638     18641     18638     18641     18644     18645
     18638     18641     18644     18646     18638     18641     18644     18647
     18639     18638     18641     18642     18639     18638     18641     18643
     18639     18638     18641     18644     18640     18638     18641     18642
     18640     18638     18641     18643     18640     18638     18641     18644
     18641     18644     18647     18648     18641     18644     18647     18649
     18641     18644     18647     18650     18642     18641     18644     18645
     18642     18641     18644     18646     18642     18641     18644     18647
     18643     18641     18644     18645     18643     18641     18644     18646
     18643     18641     18644     18647     18644     18647     18650     18651
     18644     18647     18650     18652     18644     18647     18650     18653
     18645     18644     18647     18648     18645     18644     18647     18649
     18645     18644     18647     18650     18646     18644     18647     18648
     18646     18644     18647     18649     18646     18644     18647     18650
     18648     18647     18650     18651     18648     18647     18650     18652
     18648     18647     18650     18653     18649     18647     18650     18651
     18649     18647     18650     18652     18649     18647     18650     18653
     18654     18657     18660     18661     18654     18657     18660     18662
     18654     18657     18660     18663     18655     18654     18657     18658
     18655     18654     18657     18659     18655     18654     18657     18660
     18656     18654     18657     18658     18656     18654     18657     18659
     18656     18654     18657     18660     18657     18660     18663     18664
     18657     18660     18663     18665     18657     18660     18663     18666
     18658     18657     18660     18661     18658     18657     18660     18662
     18658     18657     18660     18663     18659     18657     18660     18661
     18659     18657     18660     18662     18659     18657     18660     18663
     18660     18663     18666     18667     18660     18663     18666     18668
     18660     18663     18666     18669     18661     18660     18663     18664
     18661     18660     18663     18665     18661     18660     18663     18666
     18662     18660     18663     18664     18662     18660     18663     18665
     18662     18660     18663     18666     18663     18666     18669     18670
     18663     18666     18669     18671     18663     18666     18669     18672
     18664     18663     18666     18667     18664     18663     18666     18668
     18664     18663     18666     18669     18665     18663     18666     18667
     18665     18663     18666     18668     18665     18663     18666     18669
     18666     18669     18672     18673     18666     18669     18672     18674
     18666     18669     18672     18675     18667     18666     18669     18670
     18667     18666     18669     18671     18667     18666     18669     18672
     18668     18666     18669     18670     18668     18666     18669     18671
     18668     18666     18669     18672     18669     18672     18675     18676
     18669     18672     18675     18677     18669     18672     18675     18678
     18670     18669     18672     18673     18670     18669     18672     18674
     18670     18669     18672     18675     18671     18669     18672     18673
     18671     18669     18672     18674     18671     18669     18672     18675
     18672     18675     18678     18679     18672     18675     18678     18680
     18672     18675     18678     18681     18673     18672     18675     18676
     18673     18672     18675     18677     18673     18672     18675     18678
     18674     18672     18675     18676     18674     18672     18675     18677
     18674     18672     18675     18678     18675     18678     18681     18682
     18675     18678     18681     18683     18675     18678     18681     18684
     18676     18675     18678     18679     18676     18675     18678     18680
     18676     18675     18678     18681     18677     18675     18678     18679
     18677     18675     18678     18680     18677     18675     18678     18681
     18678     18681     18684     18685     18678     18681     18684     18686
     18678     18681     18684     18687     18679     18678     18681     18682
     18679     18678     18681     18683     18679     18678     18681     18684
     18680     18678     18681     18682     18680     18678     18681     18683
     18680     18678     18681     18684     18681     18684     18687     18688
     18681     18684     18687     18689     18681     18684     18687     18690
     18682     18681     18684     18685     18682     18681     18684     18686
     18682     18681     18684     18687     18683     18681     18684     18685
     18683     18681     18684     18686     18683     18681     18684     18687
     18684     18687     18690     18691     18684     18687     18690     18692
     18684     18687     18690     18693     18685     18684     18687     18688
     18685     18684     18687     18689     18685     18684     18687     18690
     18686     18684     18687     18688     18686     18684     18687     18689
     18686     18684     18687     18690     18687     18690     18693     18694
     18687     18690     18693     18695     18687     18690     18693     18696
     18688     18687     18690     18691     18688     18687     18690     18692
     18688     18687     18690     18693     18689     18687     18690     18691
     18689     18687     18690     18692     18689     18687     18690     18693
     18690     18693     18696     18697     18690     18693     18696     18698
     18690     18693     18696     18699     18691     18690     18693     18694
     18691     18690     18693     18695     18691     18690     18693     18696
     18692     18690     18693     18694     18692     18690     18693     18695
     18692     18690     18693     18696     18693     18696     18699     18700
     18693     18696     18699     18701     18693     18696     18699     18702
     18694     18693     18696     18697     18694     18693     18696     18698
     18694     18693     18696     18699     18695     18693     18696     18697
     18695     18693     18696     18698     18695     18693     18696     18699
     18697     18696     18699     18700     18697     18696     18699     18701
     18697     18696     18699     18702     18698     18696     18699     18700
     18698     18696     18699     18701     18698     18696     18699     18702
     14904     14917     14920     14921     14904     14917     14920     14922
     14904     14917     14920     14927     14905     14904     14909     14910
     14905     14904     14909     14911     14905     14904     14909     14912
     14905     14904     14913     14914     14905     14904     14913     14915
     14905     14904     14913     14916     14905     14904     14917     14918
     14905     14904     14917     14919     14905     14904     14917     14920
     14906     14905     14904     14909     14906     14905     14904     14913
     14906     14905     14904     14917     14907     14905     14904     14909
     14907     14905     14904     14913     14907     14905     14904     14917
     14908     14905     14904     14909     14908     14905     14904     14913
     14908     14905     14904     14917     14909     14904     14913     14914
     14909     14904     14913     14915     14909     14904     14913     14916
     14909     14904     14917     14918     14909     14904     14917     14919
     14909     14904     14917     14920     14910     14909     14904     14913
     14910     14909     14904     14917     14911     14909     14904     14913
     14911     14909     14904     14917     14912     14909     14904     14913
     14912     14909     14904     14917     14913     14904     14917     14918
     14913     14904     14917     14919     14913     14904     14917     14920
     14914     14913     14904     14917     14915     14913     14904     14917
     14916     14913     14904     14917     14917     14920     14927     14923
     14918     14917     14920     14921     14918     14917     14920     14922
     14918     14917     14920     14927     14919     14917     14920     14921
     14919     14917     14920     14922     14919     14917     14920     14927
     14920     14927     14923     14924     14920     14927     14923     14925
     14920     14927     14923     14926     14921     14920     14927     14923
     14922     14920     14927     14923     14923     14926     14928     14929
     14923     14926     14928     14930     14923     14926     14928     14933
     14924     14923     14926     14928     14925     14923     14926     14928
     14926     14928     14933     14931     14926     14928     14933     14934
     14926     14928     14933     14935     14927     14923     14926     14928
     14928     14933     14931     14932     14928     14933     14931     14983
     14928     14933     14935     14936     14928     14933     14935     14937
     14928     14933     14935     14939     14929     14928     14933     14931
     14929     14928     14933     14934     14929     14928     14933     14935
     14930     14928     14933     14931     14930     14928     14933     14934
     14930     14928     14933     14935     14931     14933     14935     14936
     14931     14933     14935     14937     14931     14933     14935     14939
     14931     14983     14985     14986     14931     14983     14985     14987
     14931     14983     14985     14988     14932     14931     14933     14934
     14932     14931     14933     14935     14932     14931     14983     14984
     14932     14931     14983     14985     14933     14931     14983     14984
     14933     14931     14983     14985     14933     14935     14937     14938
     14933     14935     14939     14940     14933     14935     14939     14941
     14934     14933     14931     14983     14934     14933     14935     14936
     14934     14933     14935     14937     14934     14933     14935     14939
     14935     14933     14931     14983     14935     14939     14941     14942
     14935     14939     14941     14943     14936     14935     14937     14938
     14936     14935     14939     14940     14936     14935     14939     14941
     14937     14935     14939     14940     14937     14935     14939     14941
     14938     14937     14935     14939     14939     14941     14943     14944
     14939     14941     14943     14945     14939     14941     14943     14946
     14940     14939     14941     14942     14940     14939     14941     14943
     14941     14943     14946     14947     14941     14943     14946     14948
     14941     14943     14946     14949     14942     14941     14943     14944
     14942     14941     14943     14945     14942     14941     14943     14946
     14943     14946     14949     14950     14943     14946     14949     14951
     14943     14946     14949     14952     14944     14943     14946     14947
     14944     14943     14946     14948     14944     14943     14946     14949
     14945     14943     14946     14947     14945     14943     14946     14948
     14945     14943     14946     14949     14946     14949     14952     14953
     14946     14949     14952     14954     14946     14949     14952     14955
     14947     14946     14949     14950     14947     14946     14949     14951
     14947     14946     14949     14952     14948     14946     14949     14950
     14948     14946     14949     14951     14948     14946     14949     14952
     14949     14952     14955     14956     14949     14952     14955     14957
     14949     14952     14955     14958     14950     14949     14952     14953
     14950     14949     14952     14954     14950     14949     14952     14955
     14951     14949     14952     14953     14951     14949     14952     14954
     14951     14949     14952     14955     14952     14955     14958     14959
     14952     14955     14958     14960     14952     14955     14958     14961
     14953     14952     14955     14956     14953     14952     14955     14957
     14953     14952     14955     14958     14954     14952     14955     14956
     14954     14952     14955     14957     14954     14952     14955     14958
     14955     14958     14961     14962     14955     14958     14961     14963
     14955     14958     14961     14964     14956     14955     14958     14959
     14956     14955     14958     14960     14956     14955     14958     14961
     14957     14955     14958     14959     14957     14955     14958     14960
     14957     14955     14958     14961     14958     14961     14964     14965
     14958     14961     14964     14966     14958     14961     14964     14967
     14959     14958     14961     14962     14959     14958     14961     14963
     14959     14958     14961     14964     14960     14958     14961     14962
     14960     14958     14961     14963     14960     14958     14961     14964
     14961     14964     14967     14968     14961     14964     14967     14969
     14961     14964     14967     14970     14962     14961     14964     14965
     14962     14961     14964     14966     14962     14961     14964     14967
     14963     14961     14964     14965     14963     14961     14964     14966
     14963     14961     14964     14967     14964     14967     14970     14971
     14964     14967     14970     14972     14964     14967     14970     14973
     14965     14964     14967     14968     14965     14964     14967     14969
     14965     14964     14967     14970     14966     14964     14967     14968
     14966     14964     14967     14969     14966     14964     14967     14970
     14967     14970     14973     14974     14967     14970     14973     14975
     14967     14970     14973     14976     14968     14967     14970     14971
     14968     14967     14970     14972     14968     14967     14970     14973
     14969     14967     14970     14971     14969     14967     14970     14972
     14969     14967     14970     14973     14970     14973     14976     14977
     14970     14973     14976     14978     14970     14973     14976     14979
     14971     14970     14973     14974     14971     14970     14973     14975
     14971     14970     14973     14976     14972     14970     14973     14974
     14972     14970     14973     14975     14972     14970     14973     14976
     14973     14976     14979     14980     14973     14976     14979     14981
     14973     14976     14979     14982     14974     14973     14976     14977
     14974     14973     14976     14978     14974     14973     14976     14979
     14975     14973     14976     14977     14975     14973     14976     14978
     14975     14973     14976     14979     14977     14976     14979     14980
     14977     14976     14979     14981     14977     14976     14979     14982
     14978     14976     14979     14980     14978     14976     14979     14981
     14978     14976     14979     14982     14983     14985     14988     14989
     14983     14985     14988     14990     14983     14985     14988     14991
     14984     14983     14985     14986     14984     14983     14985     14987
     14984     14983     14985     14988     14985     14988     14991     14992
     14985     14988     14991     14993     14985     14988     14991     14994
     14986     14985     14988     14989     14986     14985     14988     14990
     14986     14985     14988     14991     14987     14985     14988     14989
     14987     14985     14988     14990     14987     14985     14988     14991
     14988     14991     14994     14995     14988     14991     14994     14996
     14988     14991     14994     14997     14989     14988     14991     14992
     14989     14988     14991     14993     14989     14988     14991     14994
     14990     14988     14991     14992     14990     14988     14991     14993
     14990     14988     14991     14994     14991     14994     14997     14998
     14991     14994     14997     14999     14991     14994     14997     15000
     14992     14991     14994     14995     14992     14991     14994     14996
     14992     14991     14994     14997     14993     14991     14994     14995
     14993     14991     14994     14996     14993     14991     14994     14997
     14994     14997     15000     15001     14994     14997     15000     15002
     14994     14997     15000     15003     14995     14994     14997     14998
     14995     14994     14997     14999     14995     14994     14997     15000
     14996     14994     14997     14998     14996     14994     14997     14999
     14996     14994     14997     15000     14997     15000     15003     15004
     14997     15000     15003     15005     14997     15000     15003     15006
     14998     14997     15000     15001     14998     14997     15000     15002
     14998     14997     15000     15003     14999     14997     15000     15001
     14999     14997     15000     15002     14999     14997     15000     15003
     15000     15003     15006     15007     15000     15003     15006     15008
     15001     15000     15003     15004     15001     15000     15003     15005
     15001     15000     15003     15006     15002     15000     15003     15004
     15002     15000     15003     15005     15002     15000     15003     15006
     15003     15006     15008     15009     15003     15006     15008     15010
     15004     15003     15006     15007     15004     15003     15006     15008
     15005     15003     15006     15007     15005     15003     15006     15008
     15006     15008     15010     15011     15006     15008     15010     15012
     15006     15008     15010     15013     15007     15006     15008     15009
     15007     15006     15008     15010     15008     15010     15013     15014
     15008     15010     15013     15015     15008     15010     15013     15016
     15009     15008     15010     15011     15009     15008     15010     15012
     15009     15008     15010     15013     15010     15013     15016     15017
     15010     15013     15016     15018     15010     15013     15016     15019
     15011     15010     15013     15014     15011     15010     15013     15015
     15011     15010     15013     15016     15012     15010     15013     15014
     15012     15010     15013     15015     15012     15010     15013     15016
     15013     15016     15019     15020     15013     15016     15019     15021
     15013     15016     15019     15022     15014     15013     15016     15017
     15014     15013     15016     15018     15014     15013     15016     15019
     15015     15013     15016     15017     15015     15013     15016     15018
     15015     15013     15016     15019     15016     15019     15022     15023
     15016     15019     15022     15024     15016     15019     15022     15025
     15017     15016     15019     15020     15017     15016     15019     15021
     15017     15016     15019     15022     15018     15016     15019     15020
     15018     15016     15019     15021     15018     15016     15019     15022
     15019     15022     15025     15026     15019     15022     15025     15027
     15019     15022     15025     15028     15020     15019     15022     15023
     15020     15019     15022     15024     15020     15019     15022     15025
     15021     15019     15022     15023     15021     15019     15022     15024
     15021     15019     15022     15025     15022     15025     15028     15029
     15022     15025     15028     15030     15022     15025     15028     15031
     15023     15022     15025     15026     15023     15022     15025     15027
     15023     15022     15025     15028     15024     15022     15025     15026
     15024     15022     15025     15027     15024     15022     15025     15028
     15025     15028     15031     15032     15025     15028     15031     15033
     15025     15028     15031     15034     15026     15025     15028     15029
     15026     15025     15028     15030     15026     15025     15028     15031
     15027     15025     15028     15029     15027     15025     15028     15030
     15027     15025     15028     15031     15029     15028     15031     15032
     15029     15028     15031     15033     15029     15028     15031     15034
     15030     15028     15031     15032     15030     15028     15031     15033
     15030     15028     15031     15034     15035     15048     15051     15052
     15035     15048     15051     15053     15035     15048     15051     15058
     15036     15035     15040     15041     15036     15035     15040     15042
     15036     15035     15040     15043     15036     15035     15044     15045
     15036     15035     15044     15046     15036     15035     15044     15047
     15036     15035     15048     15049     15036     15035     15048     15050
     15036     15035     15048     15051     15037     15036     15035     15040
     15037     15036     15035     15044     15037     15036     15035     15048
     15038     15036     15035     15040     15038     15036     15035     15044
     15038     15036     15035     15048     15039     15036     15035     15040
     15039     15036     15035     15044     15039     15036     15035     15048
     15040     15035     15044     15045     15040     15035     15044     15046
     15040     15035     15044     15047     15040     15035     15048     15049
     15040     15035     15048     15050     15040     15035     15048     15051
     15041     15040     15035     15044     15041     15040     15035     15048
     15042     15040     15035     15044     15042     15040     15035     15048
     15043     15040     15035     15044     15043     15040     15035     15048
     15044     15035     15048     15049     15044     15035     15048     15050
     15044     15035     15048     15051     15045     15044     15035     15048
     15046     15044     15035     15048     15047     15044     15035     15048
     15048     15051     15058     15054     15049     15048     15051     15052
     15049     15048     15051     15053     15049     15048     15051     15058
     15050     15048     15051     15052     15050     15048     15051     15053
     15050     15048     15051     15058     15051     15058     15054     15055
     15051     15058     15054     15056     15051     15058     15054     15057
     15052     15051     15058     15054     15053     15051     15058     15054
     15054     15057     15059     15060     15054     15057     15059     15061
     15054     15057     15059     15064     15055     15054     15057     15059
     15056     15054     15057     15059     15057     15059     15064     15062
     15057     15059     15064     15065     15057     15059     15064     15066
     15058     15054     15057     15059     15059     15064     15062     15063
     15059     15064     15062     15114     15059     15064     15066     15067
     15059     15064     15066     15068     15059     15064     15066     15070
     15060     15059     15064     15062     15060     15059     15064     15065
     15060     15059     15064     15066     15061     15059     15064     15062
     15061     15059     15064     15065     15061     15059     15064     15066
     15062     15064     15066     15067     15062     15064     15066     15068
     15062     15064     15066     15070     15062     15114     15116     15117
     15062     15114     15116     15118     15062     15114     15116     15119
     15063     15062     15064     15065     15063     15062     15064     15066
     15063     15062     15114     15115     15063     15062     15114     15116
     15064     15062     15114     15115     15064     15062     15114     15116
     15064     15066     15068     15069     15064     15066     15070     15071
     15064     15066     15070     15072     15065     15064     15062     15114
     15065     15064     15066     15067     15065     15064     15066     15068
     15065     15064     15066     15070     15066     15064     15062     15114
     15066     15070     15072     15073     15066     15070     15072     15074
     15067     15066     15068     15069     15067     15066     15070     15071
     15067     15066     15070     15072     15068     15066     15070     15071
     15068     15066     15070     15072     15069     15068     15066     15070
     15070     15072     15074     15075     15070     15072     15074     15076
     15070     15072     15074     15077     15071     15070     15072     15073
     15071     15070     15072     15074     15072     15074     15077     15078
     15072     15074     15077     15079     15072     15074     15077     15080
     15073     15072     15074     15075     15073     15072     15074     15076
     15073     15072     15074     15077     15074     15077     15080     15081
     15074     15077     15080     15082     15074     15077     15080     15083
     15075     15074     15077     15078     15075     15074     15077     15079
     15075     15074     15077     15080     15076     15074     15077     15078
     15076     15074     15077     15079     15076     15074     15077     15080
     15077     15080     15083     15084     15077     15080     15083     15085
     15077     15080     15083     15086     15078     15077     15080     15081
     15078     15077     15080     15082     15078     15077     15080     15083
     15079     15077     15080     15081     15079     15077     15080     15082
     15079     15077     15080     15083     15080     15083     15086     15087
     15080     15083     15086     15088     15080     15083     15086     15089
     15081     15080     15083     15084     15081     15080     15083     15085
     15081     15080     15083     15086     15082     15080     15083     15084
     15082     15080     15083     15085     15082     15080     15083     15086
     15083     15086     15089     15090     15083     15086     15089     15091
     15083     15086     15089     15092     15084     15083     15086     15087
     15084     15083     15086     15088     15084     15083     15086     15089
     15085     15083     15086     15087     15085     15083     15086     15088
     15085     15083     15086     15089     15086     15089     15092     15093
     15086     15089     15092     15094     15086     15089     15092     15095
     15087     15086     15089     15090     15087     15086     15089     15091
     15087     15086     15089     15092     15088     15086     15089     15090
     15088     15086     15089     15091     15088     15086     15089     15092
     15089     15092     15095     15096     15089     15092     15095     15097
     15089     15092     15095     15098     15090     15089     15092     15093
     15090     15089     15092     15094     15090     15089     15092     15095
     15091     15089     15092     15093     15091     15089     15092     15094
     15091     15089     15092     15095     15092     15095     15098     15099
     15092     15095     15098     15100     15092     15095     15098     15101
     15093     15092     15095     15096     15093     15092     15095     15097
     15093     15092     15095     15098     15094     15092     15095     15096
     15094     15092     15095     15097     15094     15092     15095     15098
     15095     15098     15101     15102     15095     15098     15101     15103
     15095     15098     15101     15104     15096     15095     15098     15099
     15096     15095     15098     15100     15096     15095     15098     15101
     15097     15095     15098     15099     15097     15095     15098     15100
     15097     15095     15098     15101     15098     15101     15104     15105
     15098     15101     15104     15106     15098     15101     15104     15107
     15099     15098     15101     15102     15099     15098     15101     15103
     15099     15098     15101     15104     15100     15098     15101     15102
     15100     15098     15101     15103     15100     15098     15101     15104
     15101     15104     15107     15108     15101     15104     15107     15109
     15101     15104     15107     15110     15102     15101     15104     15105
     15102     15101     15104     15106     15102     15101     15104     15107
     15103     15101     15104     15105     15103     15101     15104     15106
     15103     15101     15104     15107     15104     15107     15110     15111
     15104     15107     15110     15112     15104     15107     15110     15113
     15105     15104     15107     15108     15105     15104     15107     15109
     15105     15104     15107     15110     15106     15104     15107     15108
     15106     15104     15107     15109     15106     15104     15107     15110
     15108     15107     15110     15111     15108     15107     15110     15112
     15108     15107     15110     15113     15109     15107     15110     15111
     15109     15107     15110     15112     15109     15107     15110     15113
     15114     15116     15119     15120     15114     15116     15119     15121
     15114     15116     15119     15122     15115     15114     15116     15117
     15115     15114     15116     15118     15115     15114     15116     15119
     15116     15119     15122     15123     15116     15119     15122     15124
     15116     15119     15122     15125     15117     15116     15119     15120
     15117     15116     15119     15121     15117     15116     15119     15122
     15118     15116     15119     15120     15118     15116     15119     15121
     15118     15116     15119     15122     15119     15122     15125     15126
     15119     15122     15125     15127     15119     15122     15125     15128
     15120     15119     15122     15123     15120     15119     15122     15124
     15120     15119     15122     15125     15121     15119     15122     15123
     15121     15119     15122     15124     15121     15119     15122     15125
     15122     15125     15128     15129     15122     15125     15128     15130
     15122     15125     15128     15131     15123     15122     15125     15126
     15123     15122     15125     15127     15123     15122     15125     15128
     15124     15122     15125     15126     15124     15122     15125     15127
     15124     15122     15125     15128     15125     15128     15131     15132
     15125     15128     15131     15133     15125     15128     15131     15134
     15126     15125     15128     15129     15126     15125     15128     15130
     15126     15125     15128     15131     15127     15125     15128     15129
     15127     15125     15128     15130     15127     15125     15128     15131
     15128     15131     15134     15135     15128     15131     15134     15136
     15128     15131     15134     15137     15129     15128     15131     15132
     15129     15128     15131     15133     15129     15128     15131     15134
     15130     15128     15131     15132     15130     15128     15131     15133
     15130     15128     15131     15134     15131     15134     15137     15138
     15131     15134     15137     15139     15132     15131     15134     15135
     15132     15131     15134     15136     15132     15131     15134     15137
     15133     15131     15134     15135     15133     15131     15134     15136
     15133     15131     15134     15137     15134     15137     15139     15140
     15134     15137     15139     15141     15135     15134     15137     15138
     15135     15134     15137     15139     15136     15134     15137     15138
     15136     15134     15137     15139     15137     15139     15141     15142
     15137     15139     15141     15143     15137     15139     15141     15144
     15138     15137     15139     15140     15138     15137     15139     15141
     15139     15141     15144     15145     15139     15141     15144     15146
     15139     15141     15144     15147     15140     15139     15141     15142
     15140     15139     15141     15143     15140     15139     15141     15144
     15141     15144     15147     15148     15141     15144     15147     15149
     15141     15144     15147     15150     15142     15141     15144     15145
     15142     15141     15144     15146     15142     15141     15144     15147
     15143     15141     15144     15145     15143     15141     15144     15146
     15143     15141     15144     15147     15144     15147     15150     15151
     15144     15147     15150     15152     15144     15147     15150     15153
     15145     15144     15147     15148     15145     15144     15147     15149
     15145     15144     15147     15150     15146     15144     15147     15148
     15146     15144     15147     15149     15146     15144     15147     15150
     15147     15150     15153     15154     15147     15150     15153     15155
     15147     15150     15153     15156     15148     15147     15150     15151
     15148     15147     15150     15152     15148     15147     15150     15153
     15149     15147     15150     15151     15149     15147     15150     15152
     15149     15147     15150     15153     15150     15153     15156     15157
     15150     15153     15156     15158     15150     15153     15156     15159
     15151     15150     15153     15154     15151     15150     15153     15155
     15151     15150     15153     15156     15152     15150     15153     15154
     15152     15150     15153     15155     15152     15150     15153     15156
     15153     15156     15159     15160     15153     15156     15159     15161
     15153     15156     15159     15162     15154     15153     15156     15157
     15154     15153     15156     15158     15154     15153     15156     15159
     15155     15153     15156     15157     15155     15153     15156     15158
     15155     15153     15156     15159     15156     15159     15162     15163
     15156     15159     15162     15164     15156     15159     15162     15165
     15157     15156     15159     15160     15157     15156     15159     15161
     15157     15156     15159     15162     15158     15156     15159     15160
     15158     15156     15159     15161     15158     15156     15159     15162
     15160     15159     15162     15163     15160     15159     15162     15164
     15160     15159     15162     15165     15161     15159     15162     15163
     15161     15159     15162     15164     15161     15159     15162     15165
      5843      5847      5850      5851      5843      5847      5850      5881
      5843      5889      5886      5881      5843      5889      5886      5887
      5843      5889      5886      5888      5844      5843      5845      5846
      5844      5843      5847      5848      5844      5843      5847      5849
      5844      5843      5847      5850      5844      5843      5889      5886
      5844      5843      5889      5890      5844      5843      5889      5891
      5845      5843      5847      5848      5845      5843      5847      5849
      5845      5843      5847      5850      5845      5843      5889      5886
      5845      5843      5889      5890      5845      5843      5889      5891
      5846      5845      5843      5847      5846      5845      5843      5889
      5847      5843      5889      5886      5847      5843      5889      5890
      5847      5843      5889      5891      5847      5850      5851      5852
      5847      5850      5851      5853      5847      5850      5881      5879
      5847      5850      5881      5882      5847      5850      5881      5886
      5848      5847      5843      5889      5848      5847      5850      5851
      5848      5847      5850      5881      5849      5847      5843      5889
      5849      5847      5850      5851      5849      5847      5850      5881
      5850      5847      5843      5889      5850      5851      5853      5854
      5850      5851      5853      5855      5850      5851      5853      5856
      5850      5881      5879      5856      5850      5881      5879      5876
      5850      5881      5879      5880      5850      5881      5882      5883
      5850      5881      5882      5884      5850      5881      5882      5885
      5850      5881      5886      5887      5850      5881      5886      5888
      5850      5881      5886      5889      5851      5850      5881      5879
      5851      5850      5881      5882      5851      5850      5881      5886
      5851      5853      5856      5857      5851      5853      5856      5858
      5851      5853      5856      5879      5852      5851      5850      5881
      5852      5851      5853      5854      5852      5851      5853      5855
      5852      5851      5853      5856      5853      5851      5850      5881
      5853      5856      5858      5859      5853      5856      5858      5860
      5853      5856      5858      5868      5853      5856      5879      5876
      5853      5856      5879      5880      5853      5856      5879      5881
      5854      5853      5856      5857      5854      5853      5856      5858
      5854      5853      5856      5879      5855      5853      5856      5857
      5855      5853      5856      5858      5855      5853      5856      5879
      5856      5858      5860      5861      5856      5858      5860      5862
      5856      5858      5860      5863      5856      5858      5868      5866
      5856      5858      5868      5869      5856      5858      5868      5873
      5856      5879      5876      5873      5856      5879      5876      5877
      5856      5879      5876      5878      5856      5879      5881      5882
      5856      5879      5881      5886      5857      5856      5858      5859
      5857      5856      5858      5860      5857      5856      5858      5868
      5857      5856      5879      5876      5857      5856      5879      5880
      5857      5856      5879      5881      5858      5856      5879      5876
      5858      5856      5879      5880      5858      5856      5879      5881
      5858      5860      5863      5864      5858      5860      5863      5865
      5858      5860      5863      5866      5858      5868      5866      5863
      5858      5868      5866      5867      5858      5868      5866      5892
      5858      5868      5869      5870      5858      5868      5869      5871
      5858      5868      5869      5872      5858      5868      5873      5874
      5858      5868      5873      5875      5858      5868      5873      5876
      5859      5858      5856      5879      5859      5858      5860      5861
      5859      5858      5860      5862      5859      5858      5860      5863
      5859      5858      5868      5866      5859      5858      5868      5869
      5859      5858      5868      5873      5860      5858      5856      5879
      5860      5858      5868      5866      5860      5858      5868      5869
      5860      5858      5868      5873      5860      5863      5866      5867
      5860      5863      5866      5868      5860      5863      5866      5892
      5861      5860      5858      5868      5861      5860      5863      5864
      5861      5860      5863      5865      5861      5860      5863      5866
      5862      5860      5858      5868      5862      5860      5863      5864
      5862      5860      5863      5865      5862      5860      5863      5866
      5863      5860      5858      5868      5863      5866      5868      5869
      5863      5866      5868      5873      5863      5866      5892      5893
      5863      5866      5892      5894      5863      5866      5892      5898
      5864      5863      5866      5867      5864      5863      5866      5868
      5864      5863      5866      5892      5865      5863      5866      5867
      5865      5863      5866      5868      5865      5863      5866      5892
      5866      5868      5869      5870      5866      5868      5869      5871
      5866      5868      5869      5872      5866      5868      5873      5874
      5866      5868      5873      5875      5866      5868      5873      5876
      5866      5892      5894      5895      5866      5892      5894      5896
      5866      5892      5894      5897      5866      5892      5898      5899
      5866      5892      5898      5900      5866      5892      5898      5901
      5867      5866      5868      5869      5867      5866      5868      5873
      5867      5866      5892      5893      5867      5866      5892      5894
      5867      5866      5892      5898      5868      5858      5856      5879
      5868      5866      5892      5893      5868      5866      5892      5894
      5868      5866      5892      5898      5868      5873      5876      5877
      5868      5873      5876      5878      5868      5873      5876      5879
      5869      5868      5866      5892      5869      5868      5873      5874
      5869      5868      5873      5875      5869      5868      5873      5876
      5870      5869      5868      5873      5871      5869      5868      5873
      5872      5869      5868      5873      5873      5868      5866      5892
      5873      5876      5879      5880      5873      5876      5879      5881
      5874      5873      5876      5877      5874      5873      5876      5878
      5874      5873      5876      5879      5875      5873      5876      5877
      5875      5873      5876      5878      5875      5873      5876      5879
      5876      5879      5881      5882      5876      5879      5881      5886
      5877      5876      5879      5880      5877      5876      5879      5881
      5878      5876      5879      5880      5878      5876      5879      5881
      5879      5881      5882      5883      5879      5881      5882      5884
      5879      5881      5882      5885      5879      5881      5886      5887
      5879      5881      5886      5888      5879      5881      5886      5889
      5880      5879      5881      5882      5880      5879      5881      5886
      5881      5886      5889      5890      5881      5886      5889      5891
      5882      5881      5886      5887      5882      5881      5886      5888
      5882      5881      5886      5889      5883      5882      5881      5886
      5884      5882      5881      5886      5885      5882      5881      5886
      5887      5886      5889      5890      5887      5886      5889      5891
      5888      5886      5889      5890      5888      5886      5889      5891
      5892      5898      5901      5902      5892      5898      5901      5903
      5892      5898      5901      5904      5893      5892      5894      5895
      5893      5892      5894      5896      5893      5892      5894      5897
      5893      5892      5898      5899      5893      5892      5898      5900
      5893      5892      5898      5901      5894      5892      5898      5899
      5894      5892      5898      5900      5894      5892      5898      5901
      5895      5894      5892      5898      5896      5894      5892      5898
      5897      5894      5892      5898      5898      5901      5904      5905
      5898      5901      5904      5906      5898      5901      5904      5907
      5899      5898      5901      5902      5899      5898      5901      5903
      5899      5898      5901      5904      5900      5898      5901      5902
      5900      5898      5901      5903      5900      5898      5901      5904
      5901      5904      5907      5908      5901      5904      5907      5909
      5901      5904      5907      5913      5902      5901      5904      5905
      5902      5901      5904      5906      5902      5901      5904      5907
      5903      5901      5904      5905      5903      5901      5904      5906
      5903      5901      5904      5907      5904      5907      5909      5910
      5904      5907      5909      5911      5904      5907      5909      5912
      5904      5907      5913      5914      5904      5907      5913      5915
      5904      5907      5913      5916      5905      5904      5907      5908
      5905      5904      5907      5909      5905      5904      5907      5913
      5906      5904      5907      5908      5906      5904      5907      5909
      5906      5904      5907      5913      5908      5907      5909      5910
      5908      5907      5909      5911      5908      5907      5909      5912
      5908      5907      5913      5914      5908      5907      5913      5915
      5908      5907      5913      5916      5909      5907      5913      5914
      5909      5907      5913      5915      5909      5907      5913      5916
      5910      5909      5907      5913      5911      5909      5907      5913
      5912      5909      5907      5913     18703     18707     18710     18711
     18703     18707     18710     18712     18703     18707     18710     18716
     18704     18703     18707     18708     18704     18703     18707     18709
     18704     18703     18707     18710     18705     18703     18707     18708
     18705     18703     18707     18709     18705     18703     18707     18710
     18706     18703     18707     18708     18706     18703     18707     18709
     18706     18703     18707     18710     18707     18710     18716     18713
     18708     18707     18710     18711     18708     18707     18710     18712
     18708     18707     18710     18716     18709     18707     18710     18711
     18709     18707     18710     18712     18709     18707     18710     18716
     18710     18716     18713     18714     18710     18716     18713     18715
     18710     18716     18713     18717     18711     18710     18716     18713
     18712     18710     18716     18713     18713     18717     18718     18719
     18713     18717     18718     18720     18713     18717     18718     18721
     18714     18713     18717     18718     18715     18713     18717     18718
     18716     18713     18717     18718     18717     18718     18721     18722
     18717     18718     18721     18723     18717     18718     18721     18729
     18718     18721     18723     18724     18718     18721     18729     18730
     18718     18721     18729     18731     18718     18721     18729     18732
     18719     18718     18721     18722     18719     18718     18721     18723
     18719     18718     18721     18729     18720     18718     18721     18722
     18720     18718     18721     18723     18720     18718     18721     18729
     18721     18723     18724     18725     18721     18723     18724     18726
     18721     18729     18732     18733     18722     18721     18723     18724
     18722     18721     18729     18730     18722     18721     18729     18731
     18722     18721     18729     18732     18723     18721     18729     18730
     18723     18721     18729     18731     18723     18721     18729     18732
     18723     18724     18726     18727     18723     18724     18726     18728
     18723     18724     18726     18738     18724     18723     18721     18729
     18724     18726     18738     18739     18724     18726     18738     18740
     18724     18726     18738     18741     18725     18724     18726     18727
     18725     18724     18726     18728     18725     18724     18726     18738
     18726     18738     18741     18742     18726     18738     18741     18743
     18726     18738     18741     18744     18727     18726     18738     18739
     18727     18726     18738     18740     18727     18726     18738     18741
     18728     18726     18738     18739     18728     18726     18738     18740
     18728     18726     18738     18741     18729     18732     18733     18734
     18729     18732     18733     18735     18730     18729     18732     18733
     18731     18729     18732     18733     18732     18733     18735     18736
     18732     18733     18735     18737     18732     18733     18735     18785
     18733     18735     18785     18786     18733     18735     18785     18787
     18733     18735     18785     18788     18734     18733     18735     18736
     18734     18733     18735     18737     18734     18733     18735     18785
     18735     18785     18788     18789     18735     18785     18788     18790
     18735     18785     18788     18791     18736     18735     18785     18786
     18736     18735     18785     18787     18736     18735     18785     18788
     18737     18735     18785     18786     18737     18735     18785     18787
     18737     18735     18785     18788     18738     18741     18744     18745
     18738     18741     18744     18746     18739     18738     18741     18742
     18739     18738     18741     18743     18739     18738     18741     18744
     18740     18738     18741     18742     18740     18738     18741     18743
     18740     18738     18741     18744     18741     18744     18746     18747
     18741     18744     18746     18748     18742     18741     18744     18745
     18742     18741     18744     18746     18743     18741     18744     18745
     18743     18741     18744     18746     18744     18746     18748     18749
     18744     18746     18748     18750     18744     18746     18748     18751
     18745     18744     18746     18747     18745     18744     18746     18748
     18746     18748     18751     18752     18746     18748     18751     18753
     18747     18746     18748     18749     18747     18746     18748     18750
     18747     18746     18748     18751     18748     18751     18753     18754
     18748     18751     18753     18755     18749     18748     18751     18752
     18749     18748     18751     18753     18750     18748     18751     18752
     18750     18748     18751     18753     18751     18753     18755     18756
     18751     18753     18755     18757     18751     18753     18755     18758
     18752     18751     18753     18754     18752     18751     18753     18755
     18753     18755     18758     18759     18753     18755     18758     18760
     18754     18753     18755     18756     18754     18753     18755     18757
     18754     18753     18755     18758     18755     18758     18760     18761
     18755     18758     18760     18762     18756     18755     18758     18759
     18756     18755     18758     18760     18757     18755     18758     18759
     18757     18755     18758     18760     18758     18760     18762     18763
     18758     18760     18762     18764     18758     18760     18762     18765
     18759     18758     18760     18761     18759     18758     18760     18762
     18760     18762     18765     18766     18760     18762     18765     18767
     18761     18760     18762     18763     18761     18760     18762     18764
     18761     18760     18762     18765     18762     18765     18767     18768
     18762     18765     18767     18769     18763     18762     18765     18766
     18763     18762     18765     18767     18764     18762     18765     18766
     18764     18762     18765     18767     18765     18767     18769     18770
     18765     18767     18769     18771     18765     18767     18769     18772
     18766     18765     18767     18768     18766     18765     18767     18769
     18767     18769     18772     18773     18767     18769     18772     18774
     18767     18769     18772     18775     18768     18767     18769     18770
     18768     18767     18769     18771     18768     18767     18769     18772
     18769     18772     18775     18776     18769     18772     18775     18777
     18769     18772     18775     18778     18770     18769     18772     18773
     18770     18769     18772     18774     18770     18769     18772     18775
     18771     18769     18772     18773     18771     18769     18772     18774
     18771     18769     18772     18775     18772     18775     18778     18779
     18772     18775     18778     18780     18772     18775     18778     18781
     18773     18772     18775     18776     18773     18772     18775     18777
     18773     18772     18775     18778     18774     18772     18775     18776
     18774     18772     18775     18777     18774     18772     18775     18778
     18775     18778     18781     18782     18775     18778     18781     18783
     18775     18778     18781     18784     18776     18775     18778     18779
     18776     18775     18778     18780     18776     18775     18778     18781
     18777     18775     18778     18779     18777     18775     18778     18780
     18777     18775     18778     18781     18779     18778     18781     18782
     18779     18778     18781     18783     18779     18778     18781     18784
     18780     18778     18781     18782     18780     18778     18781     18783
     18780     18778     18781     18784     18785     18788     18791     18792
     18785     18788     18791     18793     18785     18788     18791     18794
     18786     18785     18788     18789     18786     18785     18788     18790
     18786     18785     18788     18791     18787     18785     18788     18789
     18787     18785     18788     18790     18787     18785     18788     18791
     18788     18791     18794     18795     18788     18791     18794     18796
     18788     18791     18794     18797     18789     18788     18791     18792
     18789     18788     18791     18793     18789     18788     18791     18794
     18790     18788     18791     18792     18790     18788     18791     18793
     18790     18788     18791     18794     18791     18794     18797     18798
     18791     18794     18797     18799     18791     18794     18797     18800
     18792     18791     18794     18795     18792     18791     18794     18796
     18792     18791     18794     18797     18793     18791     18794     18795
     18793     18791     18794     18796     18793     18791     18794     18797
     18794     18797     18800     18801     18794     18797     18800     18802
     18794     18797     18800     18803     18795     18794     18797     18798
     18795     18794     18797     18799     18795     18794     18797     18800
     18796     18794     18797     18798     18796     18794     18797     18799
     18796     18794     18797     18800     18797     18800     18803     18804
     18797     18800     18803     18805     18797     18800     18803     18806
     18798     18797     18800     18801     18798     18797     18800     18802
     18798     18797     18800     18803     18799     18797     18800     18801
     18799     18797     18800     18802     18799     18797     18800     18803
     18800     18803     18806     18807     18800     18803     18806     18808
     18800     18803     18806     18809     18801     18800     18803     18804
     18801     18800     18803     18805     18801     18800     18803     18806
     18802     18800     18803     18804     18802     18800     18803     18805
     18802     18800     18803     18806     18803     18806     18809     18810
     18803     18806     18809     18811     18803     18806     18809     18812
     18804     18803     18806     18807     18804     18803     18806     18808
     18804     18803     18806     18809     18805     18803     18806     18807
     18805     18803     18806     18808     18805     18803     18806     18809
     18806     18809     18812     18813     18806     18809     18812     18814
     18806     18809     18812     18815     18807     18806     18809     18810
     18807     18806     18809     18811     18807     18806     18809     18812
     18808     18806     18809     18810     18808     18806     18809     18811
     18808     18806     18809     18812     18809     18812     18815     18816
     18809     18812     18815     18817     18809     18812     18815     18818
     18810     18809     18812     18813     18810     18809     18812     18814
     18810     18809     18812     18815     18811     18809     18812     18813
     18811     18809     18812     18814     18811     18809     18812     18815
     18812     18815     18818     18819     18812     18815     18818     18820
     18812     18815     18818     18821     18813     18812     18815     18816
     18813     18812     18815     18817     18813     18812     18815     18818
     18814     18812     18815     18816     18814     18812     18815     18817
     18814     18812     18815     18818     18815     18818     18821     18822
     18815     18818     18821     18823     18815     18818     18821     18824
     18816     18815     18818     18819     18816     18815     18818     18820
     18816     18815     18818     18821     18817     18815     18818     18819
     18817     18815     18818     18820     18817     18815     18818     18821
     18818     18821     18824     18825     18818     18821     18824     18826
     18818     18821     18824     18827     18819     18818     18821     18822
     18819     18818     18821     18823     18819     18818     18821     18824
     18820     18818     18821     18822     18820     18818     18821     18823
     18820     18818     18821     18824     18821     18824     18827     18828
     18821     18824     18827     18829     18821     18824     18827     18830
     18822     18821     18824     18825     18822     18821     18824     18826
     18822     18821     18824     18827     18823     18821     18824     18825
     18823     18821     18824     18826     18823     18821     18824     18827
     18824     18827     18830     18831     18824     18827     18830     18832
     18824     18827     18830     18833     18825     18824     18827     18828
     18825     18824     18827     18829     18825     18824     18827     18830
     18826     18824     18827     18828     18826     18824     18827     18829
     18826     18824     18827     18830     18828     18827     18830     18831
     18828     18827     18830     18832     18828     18827     18830     18833
     18829     18827     18830     18831     18829     18827     18830     18832
     18829     18827     18830     18833      5917      5921      5924      5925
      5917      5921      5924      5955      5917      5963      5960      5955
      5917      5963      5960      5961      5917      5963      5960      5962
      5918      5917      5919      5920      5918      5917      5921      5922
      5918      5917      5921      5923      5918      5917      5921      5924
      5918      5917      5963      5960      5918      5917      5963      5964
      5918      5917      5963      5965      5919      5917      5921      5922
      5919      5917      5921      5923      5919      5917      5921      5924
      5919      5917      5963      5960      5919      5917      5963      5964
      5919      5917      5963      5965      5920      5919      5917      5921
      5920      5919      5917      5963      5921      5917      5963      5960
      5921      5917      5963      5964      5921      5917      5963      5965
      5921      5924      5925      5926      5921      5924      5925      5927
      5921      5924      5955      5953      5921      5924      5955      5956
      5921      5924      5955      5960      5922      5921      5917      5963
      5922      5921      5924      5925      5922      5921      5924      5955
      5923      5921      5917      5963      5923      5921      5924      5925
      5923      5921      5924      5955      5924      5921      5917      5963
      5924      5925      5927      5928      5924      5925      5927      5929
      5924      5925      5927      5930      5924      5955      5953      5930
      5924      5955      5953      5950      5924      5955      5953      5954
      5924      5955      5956      5957      5924      5955      5956      5958
      5924      5955      5956      5959      5924      5955      5960      5961
      5924      5955      5960      5962      5924      5955      5960      5963
      5925      5924      5955      5953      5925      5924      5955      5956
      5925      5924      5955      5960      5925      5927      5930      5931
      5925      5927      5930      5932      5925      5927      5930      5953
      5926      5925      5924      5955      5926      5925      5927      5928
      5926      5925      5927      5929      5926      5925      5927      5930
      5927      5925      5924      5955      5927      5930      5932      5933
      5927      5930      5932      5934      5927      5930      5932      5942
      5927      5930      5953      5950      5927      5930      5953      5954
      5927      5930      5953      5955      5928      5927      5930      5931
      5928      5927      5930      5932      5928      5927      5930      5953
      5929      5927      5930      5931      5929      5927      5930      5932
      5929      5927      5930      5953      5930      5932      5934      5935
      5930      5932      5934      5936      5930      5932      5934      5937
      5930      5932      5942      5940      5930      5932      5942      5943
      5930      5932      5942      5947      5930      5953      5950      5947
      5930      5953      5950      5951      5930      5953      5950      5952
      5930      5953      5955      5956      5930      5953      5955      5960
      5931      5930      5932      5933      5931      5930      5932      5934
      5931      5930      5932      5942      5931      5930      5953      5950
      5931      5930      5953      5954      5931      5930      5953      5955
      5932      5930      5953      5950      5932      5930      5953      5954
      5932      5930      5953      5955      5932      5934      5937      5938
      5932      5934      5937      5939      5932      5934      5937      5940
      5932      5942      5940      5937      5932      5942      5940      5941
      5932      5942      5940      5966      5932      5942      5943      5944
      5932      5942      5943      5945      5932      5942      5943      5946
      5932      5942      5947      5948      5932      5942      5947      5949
      5932      5942      5947      5950      5933      5932      5930      5953
      5933      5932      5934      5935      5933      5932      5934      5936
      5933      5932      5934      5937      5933      5932      5942      5940
      5933      5932      5942      5943      5933      5932      5942      5947
      5934      5932      5930      5953      5934      5932      5942      5940
      5934      5932      5942      5943      5934      5932      5942      5947
      5934      5937      5940      5941      5934      5937      5940      5942
      5934      5937      5940      5966      5935      5934      5932      5942
      5935      5934      5937      5938      5935      5934      5937      5939
      5935      5934      5937      5940      5936      5934      5932      5942
      5936      5934      5937      5938      5936      5934      5937      5939
      5936      5934      5937      5940      5937      5934      5932      5942
      5937      5940      5942      5943      5937      5940      5942      5947
      5937      5940      5966      5967      5937      5940      5966      5968
      5937      5940      5966      5972      5938      5937      5940      5941
      5938      5937      5940      5942      5938      5937      5940      5966
      5939      5937      5940      5941      5939      5937      5940      5942
      5939      5937      5940      5966      5940      5942      5943      5944
      5940      5942      5943      5945      5940      5942      5943      5946
      5940      5942      5947      5948      5940      5942      5947      5949
      5940      5942      5947      5950      5940      5966      5968      5969
      5940      5966      5968      5970      5940      5966      5968      5971
      5940      5966      5972      5973      5940      5966      5972      5974
      5940      5966      5972      5975      5941      5940      5942      5943
      5941      5940      5942      5947      5941      5940      5966      5967
      5941      5940      5966      5968      5941      5940      5966      5972
      5942      5932      5930      5953      5942      5940      5966      5967
      5942      5940      5966      5968      5942      5940      5966      5972
      5942      5947      5950      5951      5942      5947      5950      5952
      5942      5947      5950      5953      5943      5942      5940      5966
      5943      5942      5947      5948      5943      5942      5947      5949
      5943      5942      5947      5950      5944      5943      5942      5947
      5945      5943      5942      5947      5946      5943      5942      5947
      5947      5942      5940      5966      5947      5950      5953      5954
      5947      5950      5953      5955      5948      5947      5950      5951
      5948      5947      5950      5952      5948      5947      5950      5953
      5949      5947      5950      5951      5949      5947      5950      5952
      5949      5947      5950      5953      5950      5953      5955      5956
      5950      5953      5955      5960      5951      5950      5953      5954
      5951      5950      5953      5955      5952      5950      5953      5954
      5952      5950      5953      5955      5953      5955      5956      5957
      5953      5955      5956      5958      5953      5955      5956      5959
      5953      5955      5960      5961      5953      5955      5960      5962
      5953      5955      5960      5963      5954      5953      5955      5956
      5954      5953      5955      5960      5955      5960      5963      5964
      5955      5960      5963      5965      5956      5955      5960      5961
      5956      5955      5960      5962      5956      5955      5960      5963
      5957      5956      5955      5960      5958      5956      5955      5960
      5959      5956      5955      5960      5961      5960      5963      5964
      5961      5960      5963      5965      5962      5960      5963      5964
      5962      5960      5963      5965      5966      5972      5975      5976
      5966      5972      5975      5977      5966      5972      5975      5978
      5967      5966      5968      5969      5967      5966      5968      5970
      5967      5966      5968      5971      5967      5966      5972      5973
      5967      5966      5972      5974      5967      5966      5972      5975
      5968      5966      5972      5973      5968      5966      5972      5974
      5968      5966      5972      5975      5969      5968      5966      5972
      5970      5968      5966      5972      5971      5968      5966      5972
      5972      5975      5978      5979      5972      5975      5978      5980
      5972      5975      5978      5981      5973      5972      5975      5976
      5973      5972      5975      5977      5973      5972      5975      5978
      5974      5972      5975      5976      5974      5972      5975      5977
      5974      5972      5975      5978      5975      5978      5981      5982
      5975      5978      5981      5983      5975      5978      5981      5987
      5976      5975      5978      5979      5976      5975      5978      5980
      5976      5975      5978      5981      5977      5975      5978      5979
      5977      5975      5978      5980      5977      5975      5978      5981
      5978      5981      5983      5984      5978      5981      5983      5985
      5978      5981      5983      5986      5978      5981      5987      5988
      5978      5981      5987      5989      5978      5981      5987      5990
      5979      5978      5981      5982      5979      5978      5981      5983
      5979      5978      5981      5987      5980      5978      5981      5982
      5980      5978      5981      5983      5980      5978      5981      5987
      5982      5981      5983      5984      5982      5981      5983      5985
      5982      5981      5983      5986      5982      5981      5987      5988
      5982      5981      5987      5989      5982      5981      5987      5990
      5983      5981      5987      5988      5983      5981      5987      5989
      5983      5981      5987      5990      5984      5983      5981      5987
      5985      5983      5981      5987      5986      5983      5981      5987
     21547     21548     21563     21564     21547     21548     21563     21565
     21547     21548     21563     21569     21548     21547     21551     21552
     21548     21547     21551     21553     21548     21547     21551     21554
     21548     21547     21555     21556     21548     21547     21555     21557
     21548     21547     21555     21558     21548     21547     21559     21560
     21548     21547     21559     21561     21548     21547     21559     21562
     21548     21563     21569     21566     21549     21548     21547     21551
     21549     21548     21547     21555     21549     21548     21547     21559
     21549     21548     21563     21564     21549     21548     21563     21565
     21549     21548     21563     21569     21550     21548     21547     21551
     21550     21548     21547     21555     21550     21548     21547     21559
     21550     21548     21563     21564     21550     21548     21563     21565
     21550     21548     21563     21569     21551     21547     21548     21563
     21551     21547     21555     21556     21551     21547     21555     21557
     21551     21547     21555     21558     21551     21547     21559     21560
     21551     21547     21559     21561     21551     21547     21559     21562
     21552     21551     21547     21555     21552     21551     21547     21559
     21553     21551     21547     21555     21553     21551     21547     21559
     21554     21551     21547     21555     21554     21551     21547     21559
     21555     21547     21548     21563     21555     21547     21559     21560
     21555     21547     21559     21561     21555     21547     21559     21562
     21556     21555     21547     21559     21557     21555     21547     21559
     21558     21555     21547     21559     21559     21547     21548     21563
     21563     21569     21566     21567     21563     21569     21566     21568
     21563     21569     21566     21570     21564     21563     21569     21566
     21565     21563     21569     21566     21566     21570     21571     21572
     21566     21570     21571     21573     21566     21570     21571     21574
     21567     21566     21570     21571     21568     21566     21570     21571
     21569     21566     21570     21571     21570     21571     21574     21575
     21570     21571     21574     21576     21570     21571     21574     21582
     21571     21574     21576     21577     21571     21574     21582     21583
     21571     21574     21582     21584     21571     21574     21582     21585
     21572     21571     21574     21575     21572     21571     21574     21576
     21572     21571     21574     21582     21573     21571     21574     21575
     21573     21571     21574     21576     21573     21571     21574     21582
     21574     21576     21577     21578     21574     21576     21577     21579
     21574     21582     21585     21586     21575     21574     21576     21577
     21575     21574     21582     21583     21575     21574     21582     21584
     21575     21574     21582     21585     21576     21574     21582     21583
     21576     21574     21582     21584     21576     21574     21582     21585
     21576     21577     21579     21580     21576     21577     21579     21581
     21576     21577     21579     21591     21577     21576     21574     21582
     21577     21579     21591     21592     21577     21579     21591     21593
     21577     21579     21591     21594     21578     21577     21579     21580
     21578     21577     21579     21581     21578     21577     21579     21591
     21579     21591     21594     21595     21579     21591     21594     21596
     21579     21591     21594     21597     21580     21579     21591     21592
     21580     21579     21591     21593     21580     21579     21591     21594
     21581     21579     21591     21592     21581     21579     21591     21593
     21581     21579     21591     21594     21582     21585     21586     21587
     21582     21585     21586     21588     21583     21582     21585     21586
     21584     21582     21585     21586     21585     21586     21588     21589
     21585     21586     21588     21590     21585     21586     21588     21638
     21586     21588     21638     21639     21586     21588     21638     21640
     21586     21588     21638     21641     21587     21586     21588     21589
     21587     21586     21588     21590     21587     21586     21588     21638
     21588     21638     21641     21642     21588     21638     21641     21643
     21588     21638     21641     21644     21589     21588     21638     21639
     21589     21588     21638     21640     21589     21588     21638     21641
     21590     21588     21638     21639     21590     21588     21638     21640
     21590     21588     21638     21641     21591     21594     21597     21598
     21591     21594     21597     21599     21591     21594     21597     21600
     21592     21591     21594     21595     21592     21591     21594     21596
     21592     21591     21594     21597     21593     21591     21594     21595
     21593     21591     21594     21596     21593     21591     21594     21597
     21594     21597     21600     21601     21594     21597     21600     21602
     21594     21597     21600     21603     21595     21594     21597     21598
     21595     21594     21597     21599     21595     21594     21597     21600
     21596     21594     21597     21598     21596     21594     21597     21599
     21596     21594     21597     21600     21597     21600     21603     21604
     21597     21600     21603     21605     21597     21600     21603     21606
     21598     21597     21600     21601     21598     21597     21600     21602
     21598     21597     21600     21603     21599     21597     21600     21601
     21599     21597     21600     21602     21599     21597     21600     21603
     21600     21603     21606     21607     21600     21603     21606     21608
     21600     21603     21606     21609     21601     21600     21603     21604
     21601     21600     21603     21605     21601     21600     21603     21606
     21602     21600     21603     21604     21602     21600     21603     21605
     21602     21600     21603     21606     21603     21606     21609     21610
     21603     21606     21609     21611     21604     21603     21606     21607
     21604     21603     21606     21608     21604     21603     21606     21609
     21605     21603     21606     21607     21605     21603     21606     21608
     21605     21603     21606     21609     21606     21609     21611     21612
     21606     21609     21611     21613     21607     21606     21609     21610
     21607     21606     21609     21611     21608     21606     21609     21610
     21608     21606     21609     21611     21609     21611     21613     21614
     21609     21611     21613     21615     21609     21611     21613     21616
     21610     21609     21611     21612     21610     21609     21611     21613
     21611     21613     21616     21617     21611     21613     21616     21618
     21611     21613     21616     21619     21612     21611     21613     21614
     21612     21611     21613     21615     21612     21611     21613     21616
     21613     21616     21619     21620     21613     21616     21619     21621
     21613     21616     21619     21622     21614     21613     21616     21617
     21614     21613     21616     21618     21614     21613     21616     21619
     21615     21613     21616     21617     21615     21613     21616     21618
     21615     21613     21616     21619     21616     21619     21622     21623
     21616     21619     21622     21624     21616     21619     21622     21625
     21617     21616     21619     21620     21617     21616     21619     21621
     21617     21616     21619     21622     21618     21616     21619     21620
     21618     21616     21619     21621     21618     21616     21619     21622
     21619     21622     21625     21626     21619     21622     21625     21627
     21619     21622     21625     21628     21620     21619     21622     21623
     21620     21619     21622     21624     21620     21619     21622     21625
     21621     21619     21622     21623     21621     21619     21622     21624
     21621     21619     21622     21625     21622     21625     21628     21629
     21622     21625     21628     21630     21622     21625     21628     21631
     21623     21622     21625     21626     21623     21622     21625     21627
     21623     21622     21625     21628     21624     21622     21625     21626
     21624     21622     21625     21627     21624     21622     21625     21628
     21625     21628     21631     21632     21625     21628     21631     21633
     21625     21628     21631     21634     21626     21625     21628     21629
     21626     21625     21628     21630     21626     21625     21628     21631
     21627     21625     21628     21629     21627     21625     21628     21630
     21627     21625     21628     21631     21628     21631     21634     21635
     21628     21631     21634     21636     21628     21631     21634     21637
     21629     21628     21631     21632     21629     21628     21631     21633
     21629     21628     21631     21634     21630     21628     21631     21632
     21630     21628     21631     21633     21630     21628     21631     21634
     21632     21631     21634     21635     21632     21631     21634     21636
     21632     21631     21634     21637     21633     21631     21634     21635
     21633     21631     21634     21636     21633     21631     21634     21637
     21638     21641     21644     21645     21638     21641     21644     21646
     21638     21641     21644     21647     21639     21638     21641     21642
     21639     21638     21641     21643     21639     21638     21641     21644
     21640     21638     21641     21642     21640     21638     21641     21643
     21640     21638     21641     21644     21641     21644     21647     21648
     21641     21644     21647     21649     21641     21644     21647     21650
     21642     21641     21644     21645     21642     21641     21644     21646
     21642     21641     21644     21647     21643     21641     21644     21645
     21643     21641     21644     21646     21643     21641     21644     21647
     21644     21647     21650     21651     21644     21647     21650     21652
     21644     21647     21650     21653     21645     21644     21647     21648
     21645     21644     21647     21649     21645     21644     21647     21650
     21646     21644     21647     21648     21646     21644     21647     21649
     21646     21644     21647     21650     21647     21650     21653     21654
     21647     21650     21653     21655     21647     21650     21653     21656
     21648     21647     21650     21651     21648     21647     21650     21652
     21648     21647     21650     21653     21649     21647     21650     21651
     21649     21647     21650     21652     21649     21647     21650     21653
     21650     21653     21656     21657     21650     21653     21656     21658
     21650     21653     21656     21659     21651     21650     21653     21654
     21651     21650     21653     21655     21651     21650     21653     21656
     21652     21650     21653     21654     21652     21650     21653     21655
     21652     21650     21653     21656     21653     21656     21659     21660
     21653     21656     21659     21661     21653     21656     21659     21662
     21654     21653     21656     21657     21654     21653     21656     21658
     21654     21653     21656     21659     21655     21653     21656     21657
     21655     21653     21656     21658     21655     21653     21656     21659
     21656     21659     21662     21663     21656     21659     21662     21664
     21656     21659     21662     21665     21657     21656     21659     21660
     21657     21656     21659     21661     21657     21656     21659     21662
     21658     21656     21659     21660     21658     21656     21659     21661
     21658     21656     21659     21662     21659     21662     21665     21666
     21659     21662     21665     21667     21659     21662     21665     21668
     21660     21659     21662     21663     21660     21659     21662     21664
     21660     21659     21662     21665     21661     21659     21662     21663
     21661     21659     21662     21664     21661     21659     21662     21665
     21662     21665     21668     21669     21662     21665     21668     21670
     21662     21665     21668     21671     21663     21662     21665     21666
     21663     21662     21665     21667     21663     21662     21665     21668
     21664     21662     21665     21666     21664     21662     21665     21667
     21664     21662     21665     21668     21665     21668     21671     21672
     21665     21668     21671     21673     21665     21668     21671     21674
     21666     21665     21668     21669     21666     21665     21668     21670
     21666     21665     21668     21671     21667     21665     21668     21669
     21667     21665     21668     21670     21667     21665     21668     21671
     21668     21671     21674     21675     21668     21671     21674     21676
     21668     21671     21674     21677     21669     21668     21671     21672
     21669     21668     21671     21673     21669     21668     21671     21674
     21670     21668     21671     21672     21670     21668     21671     21673
     21670     21668     21671     21674     21671     21674     21677     21678
     21671     21674     21677     21679     21671     21674     21677     21680
     21672     21671     21674     21675     21672     21671     21674     21676
     21672     21671     21674     21677     21673     21671     21674     21675
     21673     21671     21674     21676     21673     21671     21674     21677
     21675     21674     21677     21678     21675     21674     21677     21679
     21675     21674     21677     21680     21676     21674     21677     21678
     21676     21674     21677     21679     21676     21674     21677     21680
      5991      5995      5998      5999      5991      5995      5998      6029
      5991      6037      6034      6029      5991      6037      6034      6035
      5991      6037      6034      6036      5992      5991      5993      5994
      5992      5991      5995      5996      5992      5991      5995      5997
      5992      5991      5995      5998      5992      5991      6037      6034
      5992      5991      6037      6038      5992      5991      6037      6039
      5993      5991      5995      5996      5993      5991      5995      5997
      5993      5991      5995      5998      5993      5991      6037      6034
      5993      5991      6037      6038      5993      5991      6037      6039
      5994      5993      5991      5995      5994      5993      5991      6037
      5995      5991      6037      6034      5995      5991      6037      6038
      5995      5991      6037      6039      5995      5998      5999      6000
      5995      5998      5999      6001      5995      5998      6029      6027
      5995      5998      6029      6030      5995      5998      6029      6034
      5996      5995      5991      6037      5996      5995      5998      5999
      5996      5995      5998      6029      5997      5995      5991      6037
      5997      5995      5998      5999      5997      5995      5998      6029
      5998      5995      5991      6037      5998      5999      6001      6002
      5998      5999      6001      6003      5998      5999      6001      6004
      5998      6029      6027      6004      5998      6029      6027      6024
      5998      6029      6027      6028      5998      6029      6030      6031
      5998      6029      6030      6032      5998      6029      6030      6033
      5998      6029      6034      6035      5998      6029      6034      6036
      5998      6029      6034      6037      5999      5998      6029      6027
      5999      5998      6029      6030      5999      5998      6029      6034
      5999      6001      6004      6005      5999      6001      6004      6006
      5999      6001      6004      6027      6000      5999      5998      6029
      6000      5999      6001      6002      6000      5999      6001      6003
      6000      5999      6001      6004      6001      5999      5998      6029
      6001      6004      6006      6007      6001      6004      6006      6008
      6001      6004      6006      6016      6001      6004      6027      6024
      6001      6004      6027      6028      6001      6004      6027      6029
      6002      6001      6004      6005      6002      6001      6004      6006
      6002      6001      6004      6027      6003      6001      6004      6005
      6003      6001      6004      6006      6003      6001      6004      6027
      6004      6006      6008      6009      6004      6006      6008      6010
      6004      6006      6008      6011      6004      6006      6016      6014
      6004      6006      6016      6017      6004      6006      6016      6021
      6004      6027      6024      6021      6004      6027      6024      6025
      6004      6027      6024      6026      6004      6027      6029      6030
      6004      6027      6029      6034      6005      6004      6006      6007
      6005      6004      6006      6008      6005      6004      6006      6016
      6005      6004      6027      6024      6005      6004      6027      6028
      6005      6004      6027      6029      6006      6004      6027      6024
      6006      6004      6027      6028      6006      6004      6027      6029
      6006      6008      6011      6012      6006      6008      6011      6013
      6006      6008      6011      6014      6006      6016      6014      6011
      6006      6016      6014      6015      6006      6016      6014      6040
      6006      6016      6017      6018      6006      6016      6017      6019
      6006      6016      6017      6020      6006      6016      6021      6022
      6006      6016      6021      6023      6006      6016      6021      6024
      6007      6006      6004      6027      6007      6006      6008      6009
      6007      6006      6008      6010      6007      6006      6008      6011
      6007      6006      6016      6014      6007      6006      6016      6017
      6007      6006      6016      6021      6008      6006      6004      6027
      6008      6006      6016      6014      6008      6006      6016      6017
      6008      6006      6016      6021      6008      6011      6014      6015
      6008      6011      6014      6016      6008      6011      6014      6040
      6009      6008      6006      6016      6009      6008      6011      6012
      6009      6008      6011      6013      6009      6008      6011      6014
      6010      6008      6006      6016      6010      6008      6011      6012
      6010      6008      6011      6013      6010      6008      6011      6014
      6011      6008      6006      6016      6011      6014      6016      6017
      6011      6014      6016      6021      6011      6014      6040      6041
      6011      6014      6040      6042      6011      6014      6040      6046
      6012      6011      6014      6015      6012      6011      6014      6016
      6012      6011      6014      6040      6013      6011      6014      6015
      6013      6011      6014      6016      6013      6011      6014      6040
      6014      6016      6017      6018      6014      6016      6017      6019
      6014      6016      6017      6020      6014      6016      6021      6022
      6014      6016      6021      6023      6014      6016      6021      6024
      6014      6040      6042      6043      6014      6040      6042      6044
      6014      6040      6042      6045      6014      6040      6046      6047
      6014      6040      6046      6048      6014      6040      6046      6049
      6015      6014      6016      6017      6015      6014      6016      6021
      6015      6014      6040      6041      6015      6014      6040      6042
      6015      6014      6040      6046      6016      6006      6004      6027
      6016      6014      6040      6041      6016      6014      6040      6042
      6016      6014      6040      6046      6016      6021      6024      6025
      6016      6021      6024      6026      6016      6021      6024      6027
      6017      6016      6014      6040      6017      6016      6021      6022
      6017      6016      6021      6023      6017      6016      6021      6024
      6018      6017      6016      6021      6019      6017      6016      6021
      6020      6017      6016      6021      6021      6016      6014      6040
      6021      6024      6027      6028      6021      6024      6027      6029
      6022      6021      6024      6025      6022      6021      6024      6026
      6022      6021      6024      6027      6023      6021      6024      6025
      6023      6021      6024      6026      6023      6021      6024      6027
      6024      6027      6029      6030      6024      6027      6029      6034
      6025      6024      6027      6028      6025      6024      6027      6029
      6026      6024      6027      6028      6026      6024      6027      6029
      6027      6029      6030      6031      6027      6029      6030      6032
      6027      6029      6030      6033      6027      6029      6034      6035
      6027      6029      6034      6036      6027      6029      6034      6037
      6028      6027      6029      6030      6028      6027      6029      6034
      6029      6034      6037      6038      6029      6034      6037      6039
      6030      6029      6034      6035      6030      6029      6034      6036
      6030      6029      6034      6037      6031      6030      6029      6034
      6032      6030      6029      6034      6033      6030      6029      6034
      6035      6034      6037      6038      6035      6034      6037      6039
      6036      6034      6037      6038      6036      6034      6037      6039
      6040      6046      6049      6050      6040      6046      6049      6051
      6040      6046      6049      6052      6041      6040      6042      6043
      6041      6040      6042      6044      6041      6040      6042      6045
      6041      6040      6046      6047      6041      6040      6046      6048
      6041      6040      6046      6049      6042      6040      6046      6047
      6042      6040      6046      6048      6042      6040      6046      6049
      6043      6042      6040      6046      6044      6042      6040      6046
      6045      6042      6040      6046      6046      6049      6052      6053
      6046      6049      6052      6054      6046      6049      6052      6055
      6047      6046      6049      6050      6047      6046      6049      6051
      6047      6046      6049      6052      6048      6046      6049      6050
      6048      6046      6049      6051      6048      6046      6049      6052
      6049      6052      6055      6056      6049      6052      6055      6057
      6049      6052      6055      6061      6050      6049      6052      6053
      6050      6049      6052      6054      6050      6049      6052      6055
      6051      6049      6052      6053      6051      6049      6052      6054
      6051      6049      6052      6055      6052      6055      6057      6058
      6052      6055      6057      6059      6052      6055      6057      6060
      6052      6055      6061      6062      6052      6055      6061      6063
      6052      6055      6061      6064      6053      6052      6055      6056
      6053      6052      6055      6057      6053      6052      6055      6061
      6054      6052      6055      6056      6054      6052      6055      6057
      6054      6052      6055      6061      6056      6055      6057      6058
      6056      6055      6057      6059      6056      6055      6057      6060
      6056      6055      6061      6062      6056      6055      6061      6063
      6056      6055      6061      6064      6057      6055      6061      6062
      6057      6055      6061      6063      6057      6055      6061      6064
      6058      6057      6055      6061      6059      6057      6055      6061
      6060      6057      6055      6061      9777      9778      9793      9794
      9777      9778      9793      9795      9777      9778      9793      9799
      9778      9777      9781      9782      9778      9777      9781      9783
      9778      9777      9781      9784      9778      9777      9785      9786
      9778      9777      9785      9787      9778      9777      9785      9788
      9778      9777      9789      9790      9778      9777      9789      9791
      9778      9777      9789      9792      9778      9793      9799      9796
      9779      9778      9777      9781      9779      9778      9777      9785
      9779      9778      9777      9789      9779      9778      9793      9794
      9779      9778      9793      9795      9779      9778      9793      9799
      9780      9778      9777      9781      9780      9778      9777      9785
      9780      9778      9777      9789      9780      9778      9793      9794
      9780      9778      9793      9795      9780      9778      9793      9799
      9781      9777      9778      9793      9781      9777      9785      9786
      9781      9777      9785      9787      9781      9777      9785      9788
      9781      9777      9789      9790      9781      9777      9789      9791
      9781      9777      9789      9792      9782      9781      9777      9785
      9782      9781      9777      9789      9783      9781      9777      9785
      9783      9781      9777      9789      9784      9781      9777      9785
      9784      9781      9777      9789      9785      9777      9778      9793
      9785      9777      9789      9790      9785      9777      9789      9791
      9785      9777      9789      9792      9786      9785      9777      9789
      9787      9785      9777      9789      9788      9785      9777      9789
      9789      9777      9778      9793      9793      9799      9796      9797
      9793      9799      9796      9798      9793      9799      9796      9800
      9794      9793      9799      9796      9795      9793      9799      9796
      9796      9800      9801      9802      9796      9800      9801      9803
      9796      9800      9801      9804      9797      9796      9800      9801
      9798      9796      9800      9801      9799      9796      9800      9801
      9800      9801      9804      9805      9800      9801      9804      9806
      9800      9801      9804      9812      9801      9804      9806      9807
      9801      9804      9812      9813      9801      9804      9812      9814
      9801      9804      9812      9815      9802      9801      9804      9805
      9802      9801      9804      9806      9802      9801      9804      9812
      9803      9801      9804      9805      9803      9801      9804      9806
      9803      9801      9804      9812      9804      9806      9807      9808
      9804      9806      9807      9809      9804      9812      9815      9816
      9805      9804      9806      9807      9805      9804      9812      9813
      9805      9804      9812      9814      9805      9804      9812      9815
      9806      9804      9812      9813      9806      9804      9812      9814
      9806      9804      9812      9815      9806      9807      9809      9810
      9806      9807      9809      9811      9806      9807      9809      9821
      9807      9806      9804      9812      9807      9809      9821      9822
      9807      9809      9821      9823      9807      9809      9821      9824
      9808      9807      9809      9810      9808      9807      9809      9811
      9808      9807      9809      9821      9809      9821      9824      9825
      9809      9821      9824      9826      9809      9821      9824      9827
      9810      9809      9821      9822      9810      9809      9821      9823
      9810      9809      9821      9824      9811      9809      9821      9822
      9811      9809      9821      9823      9811      9809      9821      9824
      9812      9815      9816      9817      9812      9815      9816      9818
      9813      9812      9815      9816      9814      9812      9815      9816
      9815      9816      9818      9819      9815      9816      9818      9820
      9815      9816      9818      9868      9816      9818      9868      9869
      9816      9818      9868      9870      9816      9818      9868      9871
      9817      9816      9818      9819      9817      9816      9818      9820
      9817      9816      9818      9868      9818      9868      9871      9872
      9818      9868      9871      9873      9818      9868      9871      9874
      9819      9818      9868      9869      9819      9818      9868      9870
      9819      9818      9868      9871      9820      9818      9868      9869
      9820      9818      9868      9870      9820      9818      9868      9871
      9821      9824      9827      9828      9821      9824      9827      9829
      9822      9821      9824      9825      9822      9821      9824      9826
      9822      9821      9824      9827      9823      9821      9824      9825
      9823      9821      9824      9826      9823      9821      9824      9827
      9824      9827      9829      9830      9824      9827      9829      9831
      9825      9824      9827      9828      9825      9824      9827      9829
      9826      9824      9827      9828      9826      9824      9827      9829
      9827      9829      9831      9832      9827      9829      9831      9833
      9827      9829      9831      9834      9828      9827      9829      9830
      9828      9827      9829      9831      9829      9831      9834      9835
      9829      9831      9834      9836      9830      9829      9831      9832
      9830      9829      9831      9833      9830      9829      9831      9834
      9831      9834      9836      9837      9831      9834      9836      9838
      9832      9831      9834      9835      9832      9831      9834      9836
      9833      9831      9834      9835      9833      9831      9834      9836
      9834      9836      9838      9839      9834      9836      9838      9840
      9834      9836      9838      9841      9835      9834      9836      9837
      9835      9834      9836      9838      9836      9838      9841      9842
      9836      9838      9841      9843      9837      9836      9838      9839
      9837      9836      9838      9840      9837      9836      9838      9841
      9838      9841      9843      9844      9838      9841      9843      9845
      9839      9838      9841      9842      9839      9838      9841      9843
      9840      9838      9841      9842      9840      9838      9841      9843
      9841      9843      9845      9846      9841      9843      9845      9847
      9841      9843      9845      9848      9842      9841      9843      9844
      9842      9841      9843      9845      9843      9845      9848      9849
      9843      9845      9848      9850      9844      9843      9845      9846
      9844      9843      9845      9847      9844      9843      9845      9848
      9845      9848      9850      9851      9845      9848      9850      9852
      9846      9845      9848      9849      9846      9845      9848      9850
      9847      9845      9848      9849      9847      9845      9848      9850
      9848      9850      9852      9853      9848      9850      9852      9854
      9848      9850      9852      9855      9849      9848      9850      9851
      9849      9848      9850      9852      9850      9852      9855      9856
      9850      9852      9855      9857      9850      9852      9855      9858
      9851      9850      9852      9853      9851      9850      9852      9854
      9851      9850      9852      9855      9852      9855      9858      9859
      9852      9855      9858      9860      9852      9855      9858      9861
      9853      9852      9855      9856      9853      9852      9855      9857
      9853      9852      9855      9858      9854      9852      9855      9856
      9854      9852      9855      9857      9854      9852      9855      9858
      9855      9858      9861      9862      9855      9858      9861      9863
      9855      9858      9861      9864      9856      9855      9858      9859
      9856      9855      9858      9860      9856      9855      9858      9861
      9857      9855      9858      9859      9857      9855      9858      9860
      9857      9855      9858      9861      9858      9861      9864      9865
      9858      9861      9864      9866      9858      9861      9864      9867
      9859      9858      9861      9862      9859      9858      9861      9863
      9859      9858      9861      9864      9860      9858      9861      9862
      9860      9858      9861      9863      9860      9858      9861      9864
      9862      9861      9864      9865      9862      9861      9864      9866
      9862      9861      9864      9867      9863      9861      9864      9865
      9863      9861      9864      9866      9863      9861      9864      9867
      9868      9871      9874      9875      9868      9871      9874      9876
      9868      9871      9874      9877      9869      9868      9871      9872
      9869      9868      9871      9873      9869      9868      9871      9874
      9870      9868      9871      9872      9870      9868      9871      9873
      9870      9868      9871      9874      9871      9874      9877      9878
      9871      9874      9877      9879      9871      9874      9877      9880
      9872      9871      9874      9875      9872      9871      9874      9876
      9872      9871      9874      9877      9873      9871      9874      9875
      9873      9871      9874      9876      9873      9871      9874      9877
      9874      9877      9880      9881      9874      9877      9880      9882
      9874      9877      9880      9883      9875      9874      9877      9878
      9875      9874      9877      9879      9875      9874      9877      9880
      9876      9874      9877      9878      9876      9874      9877      9879
      9876      9874      9877      9880      9877      9880      9883      9884
      9877      9880      9883      9885      9877      9880      9883      9886
      9878      9877      9880      9881      9878      9877      9880      9882
      9878      9877      9880      9883      9879      9877      9880      9881
      9879      9877      9880      9882      9879      9877      9880      9883
      9880      9883      9886      9887      9880      9883      9886      9888
      9880      9883      9886      9889      9881      9880      9883      9884
      9881      9880      9883      9885      9881      9880      9883      9886
      9882      9880      9883      9884      9882      9880      9883      9885
      9882      9880      9883      9886      9883      9886      9889      9890
      9883      9886      9889      9891      9883      9886      9889      9892
      9884      9883      9886      9887      9884      9883      9886      9888
      9884      9883      9886      9889      9885      9883      9886      9887
      9885      9883      9886      9888      9885      9883      9886      9889
      9886      9889      9892      9893      9886      9889      9892      9894
      9886      9889      9892      9895      9887      9886      9889      9890
      9887      9886      9889      9891      9887      9886      9889      9892
      9888      9886      9889      9890      9888      9886      9889      9891
      9888      9886      9889      9892      9889      9892      9895      9896
      9889      9892      9895      9897      9889      9892      9895      9898
      9890      9889      9892      9893      9890      9889      9892      9894
      9890      9889      9892      9895      9891      9889      9892      9893
      9891      9889      9892      9894      9891      9889      9892      9895
      9892      9895      9898      9899      9892      9895      9898      9900
      9892      9895      9898      9901      9893      9892      9895      9896
      9893      9892      9895      9897      9893      9892      9895      9898
      9894      9892      9895      9896      9894      9892      9895      9897
      9894      9892      9895      9898      9895      9898      9901      9902
      9895      9898      9901      9903      9895      9898      9901      9904
      9896      9895      9898      9899      9896      9895      9898      9900
      9896      9895      9898      9901      9897      9895      9898      9899
      9897      9895      9898      9900      9897      9895      9898      9901
      9898      9901      9904      9905      9898      9901      9904      9906
      9898      9901      9904      9907      9899      9898      9901      9902
      9899      9898      9901      9903      9899      9898      9901      9904
      9900      9898      9901      9902      9900      9898      9901      9903
      9900      9898      9901      9904      9901      9904      9907      9908
      9901      9904      9907      9909      9901      9904      9907      9910
      9902      9901      9904      9905      9902      9901      9904      9906
      9902      9901      9904      9907      9903      9901      9904      9905
      9903      9901      9904      9906      9903      9901      9904      9907
      9904      9907      9910      9911      9904      9907      9910      9912
      9904      9907      9910      9913      9905      9904      9907      9908
      9905      9904      9907      9909      9905      9904      9907      9910
      9906      9904      9907      9908      9906      9904      9907      9909
      9906      9904      9907      9910      9907      9910      9913      9914
      9907      9910      9913      9915      9907      9910      9913      9916
      9908      9907      9910      9911      9908      9907      9910      9912
      9908      9907      9910      9913      9909      9907      9910      9911
      9909      9907      9910      9912      9909      9907      9910      9913
      9911      9910      9913      9914      9911      9910      9913      9915
      9911      9910      9913      9916      9912      9910      9913      9914
      9912      9910      9913      9915      9912      9910      9913      9916
      2395      2399      2401      2402      2395      2399      2401      2403
      2395      2399      2404      2405      2395      2399      2404      2406
      2395      2399      2404      2410      2396      2395      2399      2400
      2396      2395      2399      2401      2396      2395      2399      2404
      2397      2395      2399      2400      2397      2395      2399      2401
      2397      2395      2399      2404      2398      2395      2399      2400
      2398      2395      2399      2401      2398      2395      2399      2404
      2399      2404      2410      2407      2400      2399      2401      2402
      2400      2399      2401      2403      2400      2399      2404      2405
      2400      2399      2404      2406      2400      2399      2404      2410
      2401      2399      2404      2405      2401      2399      2404      2406
      2401      2399      2404      2410      2402      2401      2399      2404
      2403      2401      2399      2404      2404      2410      2407      2408
      2404      2410      2407      2409      2404      2410      2407      2411
      2405      2404      2410      2407      2406      2404      2410      2407
      2407      2411      2412      2413      2407      2411      2412      2414
      2407      2411      2412      2415      2408      2407      2411      2412
      2409      2407      2411      2412      2410      2407      2411      2412
      2411      2412      2415      2416      2411      2412      2415      2417
      2411      2412      2415      2423      2412      2415      2417      2418
      2412      2415      2423      2424      2412      2415      2423      2425
      2412      2415      2423      2426      2413      2412      2415      2416
      2413      2412      2415      2417      2413      2412      2415      2423
      2414      2412      2415      2416      2414      2412      2415      2417
      2414      2412      2415      2423      2415      2417      2418      2419
      2415      2417      2418      2420      2415      2423      2426      2427
      2416      2415      2417      2418      2416      2415      2423      2424
      2416      2415      2423      2425      2416      2415      2423      2426
      2417      2415      2423      2424      2417      2415      2423      2425
      2417      2415      2423      2426      2417      2418      2420      2421
      2417      2418      2420      2422      2417      2418      2420      2432
      2418      2417      2415      2423      2418      2420      2432      2433
      2418      2420      2432      2434      2418      2420      2432      2435
      2419      2418      2420      2421      2419      2418      2420      2422
      2419      2418      2420      2432      2420      2432      2435      2436
      2420      2432      2435      2437      2420      2432      2435      2438
      2421      2420      2432      2433      2421      2420      2432      2434
      2421      2420      2432      2435      2422      2420      2432      2433
      2422      2420      2432      2434      2422      2420      2432      2435
      2423      2426      2427      2428      2423      2426      2427      2429
      2424      2423      2426      2427      2425      2423      2426      2427
      2426      2427      2429      2430      2426      2427      2429      2431
      2426      2427      2429      2479      2427      2429      2479      2480
      2427      2429      2479      2481      2427      2429      2479      2482
      2428      2427      2429      2430      2428      2427      2429      2431
      2428      2427      2429      2479      2429      2479      2482      2483
      2429      2479      2482      2484      2429      2479      2482      2485
      2430      2429      2479      2480      2430      2429      2479      2481
      2430      2429      2479      2482      2431      2429      2479      2480
      2431      2429      2479      2481      2431      2429      2479      2482
      2432      2435      2438      2439      2432      2435      2438      2440
      2433      2432      2435      2436      2433      2432      2435      2437
      2433      2432      2435      2438      2434      2432      2435      2436
      2434      2432      2435      2437      2434      2432      2435      2438
      2435      2438      2440      2441      2435      2438      2440      2442
      2436      2435      2438      2439      2436      2435      2438      2440
      2437      2435      2438      2439      2437      2435      2438      2440
      2438      2440      2442      2443      2438      2440      2442      2444
      2438      2440      2442      2445      2439      2438      2440      2441
      2439      2438      2440      2442      2440      2442      2445      2446
      2440      2442      2445      2447      2441      2440      2442      2443
      2441      2440      2442      2444      2441      2440      2442      2445
      2442      2445      2447      2448      2442      2445      2447      2449
      2443      2442      2445      2446      2443      2442      2445      2447
      2444      2442      2445      2446      2444      2442      2445      2447
      2445      2447      2449      2450      2445      2447      2449      2451
      2445      2447      2449      2452      2446      2445      2447      2448
      2446      2445      2447      2449      2447      2449      2452      2453
      2447      2449      2452      2454      2448      2447      2449      2450
      2448      2447      2449      2451      2448      2447      2449      2452
      2449      2452      2454      2455      2449      2452      2454      2456
      2450      2449      2452      2453      2450      2449      2452      2454
      2451      2449      2452      2453      2451      2449      2452      2454
      2452      2454      2456      2457      2452      2454      2456      2458
      2452      2454      2456      2459      2453      2452      2454      2455
      2453      2452      2454      2456      2454      2456      2459      2460
      2454      2456      2459      2461      2455      2454      2456      2457
      2455      2454      2456      2458      2455      2454      2456      2459
      2456      2459      2461      2462      2456      2459      2461      2463
      2457      2456      2459      2460      2457      2456      2459      2461
      2458      2456      2459      2460      2458      2456      2459      2461
      2459      2461      2463      2464      2459      2461      2463      2465
      2459      2461      2463      2466      2460      2459      2461      2462
      2460      2459      2461      2463      2461      2463      2466      2467
      2461      2463      2466      2468      2461      2463      2466      2469
      2462      2461      2463      2464      2462      2461      2463      2465
      2462      2461      2463      2466      2463      2466      2469      2470
      2463      2466      2469      2471      2463      2466      2469      2472
      2464      2463      2466      2467      2464      2463      2466      2468
      2464      2463      2466      2469      2465      2463      2466      2467
      2465      2463      2466      2468      2465      2463      2466      2469
      2466      2469      2472      2473      2466      2469      2472      2474
      2466      2469      2472      2475      2467      2466      2469      2470
      2467      2466      2469      2471      2467      2466      2469      2472
      2468      2466      2469      2470      2468      2466      2469      2471
      2468      2466      2469      2472      2469      2472      2475      2476
      2469      2472      2475      2477      2469      2472      2475      2478
      2470      2469      2472      2473      2470      2469      2472      2474
      2470      2469      2472      2475      2471      2469      2472      2473
      2471      2469      2472      2474      2471      2469      2472      2475
      2473      2472      2475      2476      2473      2472      2475      2477
      2473      2472      2475      2478      2474      2472      2475      2476
      2474      2472      2475      2477      2474      2472      2475      2478
      2479      2482      2485      2486      2479      2482      2485      2487
      2479      2482      2485      2488      2480      2479      2482      2483
      2480      2479      2482      2484      2480      2479      2482      2485
      2481      2479      2482      2483      2481      2479      2482      2484
      2481      2479      2482      2485      2482      2485      2488      2489
      2482      2485      2488      2490      2482      2485      2488      2491
      2483      2482      2485      2486      2483      2482      2485      2487
      2483      2482      2485      2488      2484      2482      2485      2486
      2484      2482      2485      2487      2484      2482      2485      2488
      2485      2488      2491      2492      2485      2488      2491      2493
      2485      2488      2491      2494      2486      2485      2488      2489
      2486      2485      2488      2490      2486      2485      2488      2491
      2487      2485      2488      2489      2487      2485      2488      2490
      2487      2485      2488      2491      2488      2491      2494      2495
      2488      2491      2494      2496      2488      2491      2494      2497
      2489      2488      2491      2492      2489      2488      2491      2493
      2489      2488      2491      2494      2490      2488      2491      2492
      2490      2488      2491      2493      2490      2488      2491      2494
      2491      2494      2497      2498      2491      2494      2497      2499
      2491      2494      2497      2500      2492      2491      2494      2495
      2492      2491      2494      2496      2492      2491      2494      2497
      2493      2491      2494      2495      2493      2491      2494      2496
      2493      2491      2494      2497      2494      2497      2500      2501
      2494      2497      2500      2502      2494      2497      2500      2503
      2495      2494      2497      2498      2495      2494      2497      2499
      2495      2494      2497      2500      2496      2494      2497      2498
      2496      2494      2497      2499      2496      2494      2497      2500
      2497      2500      2503      2504      2497      2500      2503      2505
      2497      2500      2503      2506      2498      2497      2500      2501
      2498      2497      2500      2502      2498      2497      2500      2503
      2499      2497      2500      2501      2499      2497      2500      2502
      2499      2497      2500      2503      2500      2503      2506      2507
      2500      2503      2506      2508      2500      2503      2506      2509
      2501      2500      2503      2504      2501      2500      2503      2505
      2501      2500      2503      2506      2502      2500      2503      2504
      2502      2500      2503      2505      2502      2500      2503      2506
      2503      2506      2509      2510      2503      2506      2509      2511
      2503      2506      2509      2512      2504      2503      2506      2507
      2504      2503      2506      2508      2504      2503      2506      2509
      2505      2503      2506      2507      2505      2503      2506      2508
      2505      2503      2506      2509      2506      2509      2512      2513
      2506      2509      2512      2514      2506      2509      2512      2515
      2507      2506      2509      2510      2507      2506      2509      2511
      2507      2506      2509      2512      2508      2506      2509      2510
      2508      2506      2509      2511      2508      2506      2509      2512
      2509      2512      2515      2516      2509      2512      2515      2517
      2509      2512      2515      2518      2510      2509      2512      2513
      2510      2509      2512      2514      2510      2509      2512      2515
      2511      2509      2512      2513      2511      2509      2512      2514
      2511      2509      2512      2515      2512      2515      2518      2519
      2512      2515      2518      2520      2512      2515      2518      2521
      2513      2512      2515      2516      2513      2512      2515      2517
      2513      2512      2515      2518      2514      2512      2515      2516
      2514      2512      2515      2517      2514      2512      2515      2518
      2515      2518      2521      2522      2515      2518      2521      2523
      2515      2518      2521      2524      2516      2515      2518      2519
      2516      2515      2518      2520      2516      2515      2518      2521
      2517      2515      2518      2519      2517      2515      2518      2520
      2517      2515      2518      2521      2518      2521      2524      2525
      2518      2521      2524      2526      2518      2521      2524      2527
      2519      2518      2521      2522      2519      2518      2521      2523
      2519      2518      2521      2524      2520      2518      2521      2522
      2520      2518      2521      2523      2520      2518      2521      2524
      2522      2521      2524      2525      2522      2521      2524      2526
      2522      2521      2524      2527      2523      2521      2524      2525
      2523      2521      2524      2526      2523      2521      2524      2527
     15166     15179     15182     15183     15166     15179     15182     15184
     15166     15179     15182     15189     15167     15166     15171     15172
     15167     15166     15171     15173     15167     15166     15171     15174
     15167     15166     15175     15176     15167     15166     15175     15177
     15167     15166     15175     15178     15167     15166     15179     15180
     15167     15166     15179     15181     15167     15166     15179     15182
     15168     15167     15166     15171     15168     15167     15166     15175
     15168     15167     15166     15179     15169     15167     15166     15171
     15169     15167     15166     15175     15169     15167     15166     15179
     15170     15167     15166     15171     15170     15167     15166     15175
     15170     15167     15166     15179     15171     15166     15175     15176
     15171     15166     15175     15177     15171     15166     15175     15178
     15171     15166     15179     15180     15171     15166     15179     15181
     15171     15166     15179     15182     15172     15171     15166     15175
     15172     15171     15166     15179     15173     15171     15166     15175
     15173     15171     15166     15179     15174     15171     15166     15175
     15174     15171     15166     15179     15175     15166     15179     15180
     15175     15166     15179     15181     15175     15166     15179     15182
     15176     15175     15166     15179     15177     15175     15166     15179
     15178     15175     15166     15179     15179     15182     15189     15185
     15180     15179     15182     15183     15180     15179     15182     15184
     15180     15179     15182     15189     15181     15179     15182     15183
     15181     15179     15182     15184     15181     15179     15182     15189
     15182     15189     15185     15186     15182     15189     15185     15187
     15182     15189     15185     15188     15183     15182     15189     15185
     15184     15182     15189     15185     15185     15188     15190     15191
     15185     15188     15190     15192     15185     15188     15190     15195
     15186     15185     15188     15190     15187     15185     15188     15190
     15188     15190     15195     15193     15188     15190     15195     15196
     15188     15190     15195     15197     15189     15185     15188     15190
     15190     15195     15193     15194     15190     15195     15193     15245
     15190     15195     15197     15198     15190     15195     15197     15199
     15190     15195     15197     15201     15191     15190     15195     15193
     15191     15190     15195     15196     15191     15190     15195     15197
     15192     15190     15195     15193     15192     15190     15195     15196
     15192     15190     15195     15197     15193     15195     15197     15198
     15193     15195     15197     15199     15193     15195     15197     15201
     15193     15245     15247     15248     15193     15245     15247     15249
     15193     15245     15247     15250     15194     15193     15195     15196
     15194     15193     15195     15197     15194     15193     15245     15246
     15194     15193     15245     15247     15195     15193     15245     15246
     15195     15193     15245     15247     15195     15197     15199     15200
     15195     15197     15201     15202     15195     15197     15201     15203
     15196     15195     15193     15245     15196     15195     15197     15198
     15196     15195     15197     15199     15196     15195     15197     15201
     15197     15195     15193     15245     15197     15201     15203     15204
     15197     15201     15203     15205     15198     15197     15199     15200
     15198     15197     15201     15202     15198     15197     15201     15203
     15199     15197     15201     15202     15199     15197     15201     15203
     15200     15199     15197     15201     15201     15203     15205     15206
     15201     15203     15205     15207     15201     15203     15205     15208
     15202     15201     15203     15204     15202     15201     15203     15205
     15203     15205     15208     15209     15203     15205     15208     15210
     15203     15205     15208     15211     15204     15203     15205     15206
     15204     15203     15205     15207     15204     15203     15205     15208
     15205     15208     15211     15212     15205     15208     15211     15213
     15205     15208     15211     15214     15206     15205     15208     15209
     15206     15205     15208     15210     15206     15205     15208     15211
     15207     15205     15208     15209     15207     15205     15208     15210
     15207     15205     15208     15211     15208     15211     15214     15215
     15208     15211     15214     15216     15208     15211     15214     15217
     15209     15208     15211     15212     15209     15208     15211     15213
     15209     15208     15211     15214     15210     15208     15211     15212
     15210     15208     15211     15213     15210     15208     15211     15214
     15211     15214     15217     15218     15211     15214     15217     15219
     15211     15214     15217     15220     15212     15211     15214     15215
     15212     15211     15214     15216     15212     15211     15214     15217
     15213     15211     15214     15215     15213     15211     15214     15216
     15213     15211     15214     15217     15214     15217     15220     15221
     15214     15217     15220     15222     15214     15217     15220     15223
     15215     15214     15217     15218     15215     15214     15217     15219
     15215     15214     15217     15220     15216     15214     15217     15218
     15216     15214     15217     15219     15216     15214     15217     15220
     15217     15220     15223     15224     15217     15220     15223     15225
     15217     15220     15223     15226     15218     15217     15220     15221
     15218     15217     15220     15222     15218     15217     15220     15223
     15219     15217     15220     15221     15219     15217     15220     15222
     15219     15217     15220     15223     15220     15223     15226     15227
     15220     15223     15226     15228     15220     15223     15226     15229
     15221     15220     15223     15224     15221     15220     15223     15225
     15221     15220     15223     15226     15222     15220     15223     15224
     15222     15220     15223     15225     15222     15220     15223     15226
     15223     15226     15229     15230     15223     15226     15229     15231
     15223     15226     15229     15232     15224     15223     15226     15227
     15224     15223     15226     15228     15224     15223     15226     15229
     15225     15223     15226     15227     15225     15223     15226     15228
     15225     15223     15226     15229     15226     15229     15232     15233
     15226     15229     15232     15234     15226     15229     15232     15235
     15227     15226     15229     15230     15227     15226     15229     15231
     15227     15226     15229     15232     15228     15226     15229     15230
     15228     15226     15229     15231     15228     15226     15229     15232
     15229     15232     15235     15236     15229     15232     15235     15237
     15229     15232     15235     15238     15230     15229     15232     15233
     15230     15229     15232     15234     15230     15229     15232     15235
     15231     15229     15232     15233     15231     15229     15232     15234
     15231     15229     15232     15235     15232     15235     15238     15239
     15232     15235     15238     15240     15232     15235     15238     15241
     15233     15232     15235     15236     15233     15232     15235     15237
     15233     15232     15235     15238     15234     15232     15235     15236
     15234     15232     15235     15237     15234     15232     15235     15238
     15235     15238     15241     15242     15235     15238     15241     15243
     15235     15238     15241     15244     15236     15235     15238     15239
     15236     15235     15238     15240     15236     15235     15238     15241
     15237     15235     15238     15239     15237     15235     15238     15240
     15237     15235     15238     15241     15239     15238     15241     15242
     15239     15238     15241     15243     15239     15238     15241     15244
     15240     15238     15241     15242     15240     15238     15241     15243
     15240     15238     15241     15244     15245     15247     15250     15251
     15245     15247     15250     15252     15245     15247     15250     15253
     15246     15245     15247     15248     15246     15245     15247     15249
     15246     15245     15247     15250     15247     15250     15253     15254
     15247     15250     15253     15255     15247     15250     15253     15256
     15248     15247     15250     15251     15248     15247     15250     15252
     15248     15247     15250     15253     15249     15247     15250     15251
     15249     15247     15250     15252     15249     15247     15250     15253
     15250     15253     15256     15257     15250     15253     15256     15258
     15250     15253     15256     15259     15251     15250     15253     15254
     15251     15250     15253     15255     15251     15250     15253     15256
     15252     15250     15253     15254     15252     15250     15253     15255
     15252     15250     15253     15256     15253     15256     15259     15260
     15253     15256     15259     15261     15253     15256     15259     15262
     15254     15253     15256     15257     15254     15253     15256     15258
     15254     15253     15256     15259     15255     15253     15256     15257
     15255     15253     15256     15258     15255     15253     15256     15259
     15256     15259     15262     15263     15256     15259     15262     15264
     15256     15259     15262     15265     15257     15256     15259     15260
     15257     15256     15259     15261     15257     15256     15259     15262
     15258     15256     15259     15260     15258     15256     15259     15261
     15258     15256     15259     15262     15259     15262     15265     15266
     15259     15262     15265     15267     15259     15262     15265     15268
     15260     15259     15262     15263     15260     15259     15262     15264
     15260     15259     15262     15265     15261     15259     15262     15263
     15261     15259     15262     15264     15261     15259     15262     15265
     15262     15265     15268     15269     15262     15265     15268     15270
     15263     15262     15265     15266     15263     15262     15265     15267
     15263     15262     15265     15268     15264     15262     15265     15266
     15264     15262     15265     15267     15264     15262     15265     15268
     15265     15268     15270     15271     15265     15268     15270     15272
     15266     15265     15268     15269     15266     15265     15268     15270
     15267     15265     15268     15269     15267     15265     15268     15270
     15268     15270     15272     15273     15268     15270     15272     15274
     15268     15270     15272     15275     15269     15268     15270     15271
     15269     15268     15270     15272     15270     15272     15275     15276
     15270     15272     15275     15277     15270     15272     15275     15278
     15271     15270     15272     15273     15271     15270     15272     15274
     15271     15270     15272     15275     15272     15275     15278     15279
     15272     15275     15278     15280     15272     15275     15278     15281
     15273     15272     15275     15276     15273     15272     15275     15277
     15273     15272     15275     15278     15274     15272     15275     15276
     15274     15272     15275     15277     15274     15272     15275     15278
     15275     15278     15281     15282     15275     15278     15281     15283
     15275     15278     15281     15284     15276     15275     15278     15279
     15276     15275     15278     15280     15276     15275     15278     15281
     15277     15275     15278     15279     15277     15275     15278     15280
     15277     15275     15278     15281     15278     15281     15284     15285
     15278     15281     15284     15286     15278     15281     15284     15287
     15279     15278     15281     15282     15279     15278     15281     15283
     15279     15278     15281     15284     15280     15278     15281     15282
     15280     15278     15281     15283     15280     15278     15281     15284
     15281     15284     15287     15288     15281     15284     15287     15289
     15281     15284     15287     15290     15282     15281     15284     15285
     15282     15281     15284     15286     15282     15281     15284     15287
     15283     15281     15284     15285     15283     15281     15284     15286
     15283     15281     15284     15287     15284     15287     15290     15291
     15284     15287     15290     15292     15284     15287     15290     15293
     15285     15284     15287     15288     15285     15284     15287     15289
     15285     15284     15287     15290     15286     15284     15287     15288
     15286     15284     15287     15289     15286     15284     15287     15290
     15287     15290     15293     15294     15287     15290     15293     15295
     15287     15290     15293     15296     15288     15287     15290     15291
     15288     15287     15290     15292     15288     15287     15290     15293
     15289     15287     15290     15291     15289     15287     15290     15292
     15289     15287     15290     15293     15291     15290     15293     15294
     15291     15290     15293     15295     15291     15290     15293     15296
     15292     15290     15293     15294     15292     15290     15293     15295
     15292     15290     15293     15296      2528      2532      2534      2535
      2528      2532      2534      2536      2528      2532      2537      2538
      2528      2532      2537      2539      2528      2532      2537      2543
      2529      2528      2532      2533      2529      2528      2532      2534
      2529      2528      2532      2537      2530      2528      2532      2533
      2530      2528      2532      2534      2530      2528      2532      2537
      2531      2528      2532      2533      2531      2528      2532      2534
      2531      2528      2532      2537      2532      2537      2543      2540
      2533      2532      2534      2535      2533      2532      2534      2536
      2533      2532      2537      2538      2533      2532      2537      2539
      2533      2532      2537      2543      2534      2532      2537      2538
      2534      2532      2537      2539      2534      2532      2537      2543
      2535      2534      2532      2537      2536      2534      2532      2537
      2537      2543      2540      2541      2537      2543      2540      2542
      2537      2543      2540      2544      2538      2537      2543      2540
      2539      2537      2543      2540      2540      2544      2545      2546
      2540      2544      2545      2547      2540      2544      2545      2548
      2541      2540      2544      2545      2542      2540      2544      2545
      2543      2540      2544      2545      2544      2545      2548      2549
      2544      2545      2548      2550      2544      2545      2548      2556
      2545      2548      2550      2551      2545      2548      2556      2557
      2545      2548      2556      2558      2545      2548      2556      2559
      2546      2545      2548      2549      2546      2545      2548      2550
      2546      2545      2548      2556      2547      2545      2548      2549
      2547      2545      2548      2550      2547      2545      2548      2556
      2548      2550      2551      2552      2548      2550      2551      2553
      2548      2556      2559      2560      2549      2548      2550      2551
      2549      2548      2556      2557      2549      2548      2556      2558
      2549      2548      2556      2559      2550      2548      2556      2557
      2550      2548      2556      2558      2550      2548      2556      2559
      2550      2551      2553      2554      2550      2551      2553      2555
      2550      2551      2553      2565      2551      2550      2548      2556
      2551      2553      2565      2566      2551      2553      2565      2567
      2551      2553      2565      2568      2552      2551      2553      2554
      2552      2551      2553      2555      2552      2551      2553      2565
      2553      2565      2568      2569      2553      2565      2568      2570
      2553      2565      2568      2571      2554      2553      2565      2566
      2554      2553      2565      2567      2554      2553      2565      2568
      2555      2553      2565      2566      2555      2553      2565      2567
      2555      2553      2565      2568      2556      2559      2560      2561
      2556      2559      2560      2562      2557      2556      2559      2560
      2558      2556      2559      2560      2559      2560      2562      2563
      2559      2560      2562      2564      2559      2560      2562      2612
      2560      2562      2612      2613      2560      2562      2612      2614
      2560      2562      2612      2615      2561      2560      2562      2563
      2561      2560      2562      2564      2561      2560      2562      2612
      2562      2612      2615      2616      2562      2612      2615      2617
      2562      2612      2615      2618      2563      2562      2612      2613
      2563      2562      2612      2614      2563      2562      2612      2615
      2564      2562      2612      2613      2564      2562      2612      2614
      2564      2562      2612      2615      2565      2568      2571      2572
      2565      2568      2571      2573      2566      2565      2568      2569
      2566      2565      2568      2570      2566      2565      2568      2571
      2567      2565      2568      2569      2567      2565      2568      2570
      2567      2565      2568      2571      2568      2571      2573      2574
      2568      2571      2573      2575      2569      2568      2571      2572
      2569      2568      2571      2573      2570      2568      2571      2572
      2570      2568      2571      2573      2571      2573      2575      2576
      2571      2573      2575      2577      2571      2573      2575      2578
      2572      2571      2573      2574      2572      2571      2573      2575
      2573      2575      2578      2579      2573      2575      2578      2580
      2574      2573      2575      2576      2574      2573      2575      2577
      2574      2573      2575      2578      2575      2578      2580      2581
      2575      2578      2580      2582      2576      2575      2578      2579
      2576      2575      2578      2580      2577      2575      2578      2579
      2577      2575      2578      2580      2578      2580      2582      2583
      2578      2580      2582      2584      2578      2580      2582      2585
      2579      2578      2580      2581      2579      2578      2580      2582
      2580      2582      2585      2586      2580      2582      2585      2587
      2581      2580      2582      2583      2581      2580      2582      2584
      2581      2580      2582      2585      2582      2585      2587      2588
      2582      2585      2587      2589      2583      2582      2585      2586
      2583      2582      2585      2587      2584      2582      2585      2586
      2584      2582      2585      2587      2585      2587      2589      2590
      2585      2587      2589      2591      2585      2587      2589      2592
      2586      2585      2587      2588      2586      2585      2587      2589
      2587      2589      2592      2593      2587      2589      2592      2594
      2588      2587      2589      2590      2588      2587      2589      2591
      2588      2587      2589      2592      2589      2592      2594      2595
      2589      2592      2594      2596      2590      2589      2592      2593
      2590      2589      2592      2594      2591      2589      2592      2593
      2591      2589      2592      2594      2592      2594      2596      2597
      2592      2594      2596      2598      2592      2594      2596      2599
      2593      2592      2594      2595      2593      2592      2594      2596
      2594      2596      2599      2600      2594      2596      2599      2601
      2594      2596      2599      2602      2595      2594      2596      2597
      2595      2594      2596      2598      2595      2594      2596      2599
      2596      2599      2602      2603      2596      2599      2602      2604
      2596      2599      2602      2605      2597      2596      2599      2600
      2597      2596      2599      2601      2597      2596      2599      2602
      2598      2596      2599      2600      2598      2596      2599      2601
      2598      2596      2599      2602      2599      2602      2605      2606
      2599      2602      2605      2607      2599      2602      2605      2608
      2600      2599      2602      2603      2600      2599      2602      2604
      2600      2599      2602      2605      2601      2599      2602      2603
      2601      2599      2602      2604      2601      2599      2602      2605
      2602      2605      2608      2609      2602      2605      2608      2610
      2602      2605      2608      2611      2603      2602      2605      2606
      2603      2602      2605      2607      2603      2602      2605      2608
      2604      2602      2605      2606      2604      2602      2605      2607
      2604      2602      2605      2608      2606      2605      2608      2609
      2606      2605      2608      2610      2606      2605      2608      2611
      2607      2605      2608      2609      2607      2605      2608      2610
      2607      2605      2608      2611      2612      2615      2618      2619
      2612      2615      2618      2620      2612      2615      2618      2621
      2613      2612      2615      2616      2613      2612      2615      2617
      2613      2612      2615      2618      2614      2612      2615      2616
      2614      2612      2615      2617      2614      2612      2615      2618
      2615      2618      2621      2622      2615      2618      2621      2623
      2615      2618      2621      2624      2616      2615      2618      2619
      2616      2615      2618      2620      2616      2615      2618      2621
      2617      2615      2618      2619      2617      2615      2618      2620
      2617      2615      2618      2621      2618      2621      2624      2625
      2618      2621      2624      2626      2618      2621      2624      2627
      2619      2618      2621      2622      2619      2618      2621      2623
      2619      2618      2621      2624      2620      2618      2621      2622
      2620      2618      2621      2623      2620      2618      2621      2624
      2621      2624      2627      2628      2621      2624      2627      2629
      2621      2624      2627      2630      2622      2621      2624      2625
      2622      2621      2624      2626      2622      2621      2624      2627
      2623      2621      2624      2625      2623      2621      2624      2626
      2623      2621      2624      2627      2624      2627      2630      2631
      2624      2627      2630      2632      2624      2627      2630      2633
      2625      2624      2627      2628      2625      2624      2627      2629
      2625      2624      2627      2630      2626      2624      2627      2628
      2626      2624      2627      2629      2626      2624      2627      2630
      2627      2630      2633      2634      2627      2630      2633      2635
      2627      2630      2633      2636      2628      2627      2630      2631
      2628      2627      2630      2632      2628      2627      2630      2633
      2629      2627      2630      2631      2629      2627      2630      2632
      2629      2627      2630      2633      2630      2633      2636      2637
      2630      2633      2636      2638      2630      2633      2636      2639
      2631      2630      2633      2634      2631      2630      2633      2635
      2631      2630      2633      2636      2632      2630      2633      2634
      2632      2630      2633      2635      2632      2630      2633      2636
      2633      2636      2639      2640      2633      2636      2639      2641
      2633      2636      2639      2642      2634      2633      2636      2637
      2634      2633      2636      2638      2634      2633      2636      2639
      2635      2633      2636      2637      2635      2633      2636      2638
      2635      2633      2636      2639      2636      2639      2642      2643
      2636      2639      2642      2644      2636      2639      2642      2645
      2637      2636      2639      2640      2637      2636      2639      2641
      2637      2636      2639      2642      2638      2636      2639      2640
      2638      2636      2639      2641      2638      2636      2639      2642
      2639      2642      2645      2646      2639      2642      2645      2647
      2639      2642      2645      2648      2640      2639      2642      2643
      2640      2639      2642      2644      2640      2639      2642      2645
      2641      2639      2642      2643      2641      2639      2642      2644
      2641      2639      2642      2645      2642      2645      2648      2649
      2642      2645      2648      2650      2642      2645      2648      2651
      2643      2642      2645      2646      2643      2642      2645      2647
      2643      2642      2645      2648      2644      2642      2645      2646
      2644      2642      2645      2647      2644      2642      2645      2648
      2645      2648      2651      2652      2645      2648      2651      2653
      2645      2648      2651      2654      2646      2645      2648      2649
      2646      2645      2648      2650      2646      2645      2648      2651
      2647      2645      2648      2649      2647      2645      2648      2650
      2647      2645      2648      2651      2648      2651      2654      2655
      2648      2651      2654      2656      2648      2651      2654      2657
      2649      2648      2651      2652      2649      2648      2651      2653
      2649      2648      2651      2654      2650      2648      2651      2652
      2650      2648      2651      2653      2650      2648      2651      2654
      2651      2654      2657      2658      2651      2654      2657      2659
      2651      2654      2657      2660      2652      2651      2654      2655
      2652      2651      2654      2656      2652      2651      2654      2657
      2653      2651      2654      2655      2653      2651      2654      2656
      2653      2651      2654      2657      2655      2654      2657      2658
      2655      2654      2657      2659      2655      2654      2657      2660
      2656      2654      2657      2658      2656      2654      2657      2659
      2656      2654      2657      2660     18834     18838     18841     18842
     18834     18838     18841     18843     18834     18838     18841     18847
     18835     18834     18838     18839     18835     18834     18838     18840
     18835     18834     18838     18841     18836     18834     18838     18839
     18836     18834     18838     18840     18836     18834     18838     18841
     18837     18834     18838     18839     18837     18834     18838     18840
     18837     18834     18838     18841     18838     18841     18847     18844
     18839     18838     18841     18842     18839     18838     18841     18843
     18839     18838     18841     18847     18840     18838     18841     18842
     18840     18838     18841     18843     18840     18838     18841     18847
     18841     18847     18844     18845     18841     18847     18844     18846
     18841     18847     18844     18848     18842     18841     18847     18844
     18843     18841     18847     18844     18844     18848     18849     18850
     18844     18848     18849     18851     18844     18848     18849     18852
     18845     18844     18848     18849     18846     18844     18848     18849
     18847     18844     18848     18849     18848     18849     18852     18853
     18848     18849     18852     18854     18848     18849     18852     18860
     18849     18852     18854     18855     18849     18852     18860     18861
     18849     18852     18860     18862     18849     18852     18860     18863
     18850     18849     18852     18853     18850     18849     18852     18854
     18850     18849     18852     18860     18851     18849     18852     18853
     18851     18849     18852     18854     18851     18849     18852     18860
     18852     18854     18855     18856     18852     18854     18855     18857
     18852     18860     18863     18864     18853     18852     18854     18855
     18853     18852     18860     18861     18853     18852     18860     18862
     18853     18852     18860     18863     18854     18852     18860     18861
     18854     18852     18860     18862     18854     18852     18860     18863
     18854     18855     18857     18858     18854     18855     18857     18859
     18854     18855     18857     18869     18855     18854     18852     18860
     18855     18857     18869     18870     18855     18857     18869     18871
     18855     18857     18869     18872     18856     18855     18857     18858
     18856     18855     18857     18859     18856     18855     18857     18869
     18857     18869     18872     18873     18857     18869     18872     18874
     18857     18869     18872     18875     18858     18857     18869     18870
     18858     18857     18869     18871     18858     18857     18869     18872
     18859     18857     18869     18870     18859     18857     18869     18871
     18859     18857     18869     18872     18860     18863     18864     18865
     18860     18863     18864     18866     18861     18860     18863     18864
     18862     18860     18863     18864     18863     18864     18866     18867
     18863     18864     18866     18868     18863     18864     18866     18916
     18864     18866     18916     18917     18864     18866     18916     18918
     18864     18866     18916     18919     18865     18864     18866     18867
     18865     18864     18866     18868     18865     18864     18866     18916
     18866     18916     18919     18920     18866     18916     18919     18921
     18866     18916     18919     18922     18867     18866     18916     18917
     18867     18866     18916     18918     18867     18866     18916     18919
     18868     18866     18916     18917     18868     18866     18916     18918
     18868     18866     18916     18919     18869     18872     18875     18876
     18869     18872     18875     18877     18870     18869     18872     18873
     18870     18869     18872     18874     18870     18869     18872     18875
     18871     18869     18872     18873     18871     18869     18872     18874
     18871     18869     18872     18875     18872     18875     18877     18878
     18872     18875     18877     18879     18873     18872     18875     18876
     18873     18872     18875     18877     18874     18872     18875     18876
     18874     18872     18875     18877     18875     18877     18879     18880
     18875     18877     18879     18881     18875     18877     18879     18882
     18876     18875     18877     18878     18876     18875     18877     18879
     18877     18879     18882     18883     18877     18879     18882     18884
     18878     18877     18879     18880     18878     18877     18879     18881
     18878     18877     18879     18882     18879     18882     18884     18885
     18879     18882     18884     18886     18880     18879     18882     18883
     18880     18879     18882     18884     18881     18879     18882     18883
     18881     18879     18882     18884     18882     18884     18886     18887
     18882     18884     18886     18888     18882     18884     18886     18889
     18883     18882     18884     18885     18883     18882     18884     18886
     18884     18886     18889     18890     18884     18886     18889     18891
     18885     18884     18886     18887     18885     18884     18886     18888
     18885     18884     18886     18889     18886     18889     18891     18892
     18886     18889     18891     18893     18887     18886     18889     18890
     18887     18886     18889     18891     18888     18886     18889     18890
     18888     18886     18889     18891     18889     18891     18893     18894
     18889     18891     18893     18895     18889     18891     18893     18896
     18890     18889     18891     18892     18890     18889     18891     18893
     18891     18893     18896     18897     18891     18893     18896     18898
     18892     18891     18893     18894     18892     18891     18893     18895
     18892     18891     18893     18896     18893     18896     18898     18899
     18893     18896     18898     18900     18894     18893     18896     18897
     18894     18893     18896     18898     18895     18893     18896     18897
     18895     18893     18896     18898     18896     18898     18900     18901
     18896     18898     18900     18902     18896     18898     18900     18903
     18897     18896     18898     18899     18897     18896     18898     18900
     18898     18900     18903     18904     18898     18900     18903     18905
     18898     18900     18903     18906     18899     18898     18900     18901
     18899     18898     18900     18902     18899     18898     18900     18903
     18900     18903     18906     18907     18900     18903     18906     18908
     18900     18903     18906     18909     18901     18900     18903     18904
     18901     18900     18903     18905     18901     18900     18903     18906
     18902     18900     18903     18904     18902     18900     18903     18905
     18902     18900     18903     18906     18903     18906     18909     18910
     18903     18906     18909     18911     18903     18906     18909     18912
     18904     18903     18906     18907     18904     18903     18906     18908
     18904     18903     18906     18909     18905     18903     18906     18907
     18905     18903     18906     18908     18905     18903     18906     18909
     18906     18909     18912     18913     18906     18909     18912     18914
     18906     18909     18912     18915     18907     18906     18909     18910
     18907     18906     18909     18911     18907     18906     18909     18912
     18908     18906     18909     18910     18908     18906     18909     18911
     18908     18906     18909     18912     18910     18909     18912     18913
     18910     18909     18912     18914     18910     18909     18912     18915
     18911     18909     18912     18913     18911     18909     18912     18914
     18911     18909     18912     18915     18916     18919     18922     18923
     18916     18919     18922     18924     18916     18919     18922     18925
     18917     18916     18919     18920     18917     18916     18919     18921
     18917     18916     18919     18922     18918     18916     18919     18920
     18918     18916     18919     18921     18918     18916     18919     18922
     18919     18922     18925     18926     18919     18922     18925     18927
     18919     18922     18925     18928     18920     18919     18922     18923
     18920     18919     18922     18924     18920     18919     18922     18925
     18921     18919     18922     18923     18921     18919     18922     18924
     18921     18919     18922     18925     18922     18925     18928     18929
     18922     18925     18928     18930     18922     18925     18928     18931
     18923     18922     18925     18926     18923     18922     18925     18927
     18923     18922     18925     18928     18924     18922     18925     18926
     18924     18922     18925     18927     18924     18922     18925     18928
     18925     18928     18931     18932     18925     18928     18931     18933
     18925     18928     18931     18934     18926     18925     18928     18929
     18926     18925     18928     18930     18926     18925     18928     18931
     18927     18925     18928     18929     18927     18925     18928     18930
     18927     18925     18928     18931     18928     18931     18934     18935
     18928     18931     18934     18936     18928     18931     18934     18937
     18929     18928     18931     18932     18929     18928     18931     18933
     18929     18928     18931     18934     18930     18928     18931     18932
     18930     18928     18931     18933     18930     18928     18931     18934
     18931     18934     18937     18938     18931     18934     18937     18939
     18931     18934     18937     18940     18932     18931     18934     18935
     18932     18931     18934     18936     18932     18931     18934     18937
     18933     18931     18934     18935     18933     18931     18934     18936
     18933     18931     18934     18937     18934     18937     18940     18941
     18934     18937     18940     18942     18934     18937     18940     18943
     18935     18934     18937     18938     18935     18934     18937     18939
     18935     18934     18937     18940     18936     18934     18937     18938
     18936     18934     18937     18939     18936     18934     18937     18940
     18937     18940     18943     18944     18937     18940     18943     18945
     18937     18940     18943     18946     18938     18937     18940     18941
     18938     18937     18940     18942     18938     18937     18940     18943
     18939     18937     18940     18941     18939     18937     18940     18942
     18939     18937     18940     18943     18940     18943     18946     18947
     18940     18943     18946     18948     18940     18943     18946     18949
     18941     18940     18943     18944     18941     18940     18943     18945
     18941     18940     18943     18946     18942     18940     18943     18944
     18942     18940     18943     18945     18942     18940     18943     18946
     18943     18946     18949     18950     18943     18946     18949     18951
     18943     18946     18949     18952     18944     18943     18946     18947
     18944     18943     18946     18948     18944     18943     18946     18949
     18945     18943     18946     18947     18945     18943     18946     18948
     18945     18943     18946     18949     18946     18949     18952     18953
     18946     18949     18952     18954     18946     18949     18952     18955
     18947     18946     18949     18950     18947     18946     18949     18951
     18947     18946     18949     18952     18948     18946     18949     18950
     18948     18946     18949     18951     18948     18946     18949     18952
     18949     18952     18955     18956     18949     18952     18955     18957
     18949     18952     18955     18958     18950     18949     18952     18953
     18950     18949     18952     18954     18950     18949     18952     18955
     18951     18949     18952     18953     18951     18949     18952     18954
     18951     18949     18952     18955     18952     18955     18958     18959
     18952     18955     18958     18960     18952     18955     18958     18961
     18953     18952     18955     18956     18953     18952     18955     18957
     18953     18952     18955     18958     18954     18952     18955     18956
     18954     18952     18955     18957     18954     18952     18955     18958
     18955     18958     18961     18962     18955     18958     18961     18963
     18955     18958     18961     18964     18956     18955     18958     18959
     18956     18955     18958     18960     18956     18955     18958     18961
     18957     18955     18958     18959     18957     18955     18958     18960
     18957     18955     18958     18961     18959     18958     18961     18962
     18959     18958     18961     18963     18959     18958     18961     18964
     18960     18958     18961     18962     18960     18958     18961     18963
     18960     18958     18961     18964      6065      6069      6072      6073
      6065      6069      6072      6103      6065      6111      6108      6103
      6065      6111      6108      6109      6065      6111      6108      6110
      6066      6065      6067      6068      6066      6065      6069      6070
      6066      6065      6069      6071      6066      6065      6069      6072
      6066      6065      6111      6108      6066      6065      6111      6112
      6066      6065      6111      6113      6067      6065      6069      6070
      6067      6065      6069      6071      6067      6065      6069      6072
      6067      6065      6111      6108      6067      6065      6111      6112
      6067      6065      6111      6113      6068      6067      6065      6069
      6068      6067      6065      6111      6069      6065      6111      6108
      6069      6065      6111      6112      6069      6065      6111      6113
      6069      6072      6073      6074      6069      6072      6073      6075
      6069      6072      6103      6101      6069      6072      6103      6104
      6069      6072      6103      6108      6070      6069      6065      6111
      6070      6069      6072      6073      6070      6069      6072      6103
      6071      6069      6065      6111      6071      6069      6072      6073
      6071      6069      6072      6103      6072      6069      6065      6111
      6072      6073      6075      6076      6072      6073      6075      6077
      6072      6073      6075      6078      6072      6103      6101      6078
      6072      6103      6101      6098      6072      6103      6101      6102
      6072      6103      6104      6105      6072      6103      6104      6106
      6072      6103      6104      6107      6072      6103      6108      6109
      6072      6103      6108      6110      6072      6103      6108      6111
      6073      6072      6103      6101      6073      6072      6103      6104
      6073      6072      6103      6108      6073      6075      6078      6079
      6073      6075      6078      6080      6073      6075      6078      6101
      6074      6073      6072      6103      6074      6073      6075      6076
      6074      6073      6075      6077      6074      6073      6075      6078
      6075      6073      6072      6103      6075      6078      6080      6081
      6075      6078      6080      6082      6075      6078      6080      6090
      6075      6078      6101      6098      6075      6078      6101      6102
      6075      6078      6101      6103      6076      6075      6078      6079
      6076      6075      6078      6080      6076      6075      6078      6101
      6077      6075      6078      6079      6077      6075      6078      6080
      6077      6075      6078      6101      6078      6080      6082      6083
      6078      6080      6082      6084      6078      6080      6082      6085
      6078      6080      6090      6088      6078      6080      6090      6091
      6078      6080      6090      6095      6078      6101      6098      6095
      6078      6101      6098      6099      6078      6101      6098      6100
      6078      6101      6103      6104      6078      6101      6103      6108
      6079      6078      6080      6081      6079      6078      6080      6082
      6079      6078      6080      6090      6079      6078      6101      6098
      6079      6078      6101      6102      6079      6078      6101      6103
      6080      6078      6101      6098      6080      6078      6101      6102
      6080      6078      6101      6103      6080      6082      6085      6086
      6080      6082      6085      6087      6080      6082      6085      6088
      6080      6090      6088      6085      6080      6090      6088      6089
      6080      6090      6088      6114      6080      6090      6091      6092
      6080      6090      6091      6093      6080      6090      6091      6094
      6080      6090      6095      6096      6080      6090      6095      6097
      6080      6090      6095      6098      6081      6080      6078      6101
      6081      6080      6082      6083      6081      6080      6082      6084
      6081      6080      6082      6085      6081      6080      6090      6088
      6081      6080      6090      6091      6081      6080      6090      6095
      6082      6080      6078      6101      6082      6080      6090      6088
      6082      6080      6090      6091      6082      6080      6090      6095
      6082      6085      6088      6089      6082      6085      6088      6090
      6082      6085      6088      6114      6083      6082      6080      6090
      6083      6082      6085      6086      6083      6082      6085      6087
      6083      6082      6085      6088      6084      6082      6080      6090
      6084      6082      6085      6086      6084      6082      6085      6087
      6084      6082      6085      6088      6085      6082      6080      6090
      6085      6088      6090      6091      6085      6088      6090      6095
      6085      6088      6114      6115      6085      6088      6114      6116
      6085      6088      6114      6120      6086      6085      6088      6089
      6086      6085      6088      6090      6086      6085      6088      6114
      6087      6085      6088      6089      6087      6085      6088      6090
      6087      6085      6088      6114      6088      6090      6091      6092
      6088      6090      6091      6093      6088      6090      6091      6094
      6088      6090      6095      6096      6088      6090      6095      6097
      6088      6090      6095      6098      6088      6114      6116      6117
      6088      6114      6116      6118      6088      6114      6116      6119
      6088      6114      6120      6121      6088      6114      6120      6122
      6088      6114      6120      6123      6089      6088      6090      6091
      6089      6088      6090      6095      6089      6088      6114      6115
      6089      6088      6114      6116      6089      6088      6114      6120
      6090      6080      6078      6101      6090      6088      6114      6115
      6090      6088      6114      6116      6090      6088      6114      6120
      6090      6095      6098      6099      6090      6095      6098      6100
      6090      6095      6098      6101      6091      6090      6088      6114
      6091      6090      6095      6096      6091      6090      6095      6097
      6091      6090      6095      6098      6092      6091      6090      6095
      6093      6091      6090      6095      6094      6091      6090      6095
      6095      6090      6088      6114      6095      6098      6101      6102
      6095      6098      6101      6103      6096      6095      6098      6099
      6096      6095      6098      6100      6096      6095      6098      6101
      6097      6095      6098      6099      6097      6095      6098      6100
      6097      6095      6098      6101      6098      6101      6103      6104
      6098      6101      6103      6108      6099      6098      6101      6102
      6099      6098      6101      6103      6100      6098      6101      6102
      6100      6098      6101      6103      6101      6103      6104      6105
      6101      6103      6104      6106      6101      6103      6104      6107
      6101      6103      6108      6109      6101      6103      6108      6110
      6101      6103      6108      6111      6102      6101      6103      6104
      6102      6101      6103      6108      6103      6108      6111      6112
      6103      6108      6111      6113      6104      6103      6108      6109
      6104      6103      6108      6110      6104      6103      6108      6111
      6105      6104      6103      6108      6106      6104      6103      6108
      6107      6104      6103      6108      6109      6108      6111      6112
      6109      6108      6111      6113      6110      6108      6111      6112
      6110      6108      6111      6113      6114      6120      6123      6124
      6114      6120      6123      6125      6114      6120      6123      6126
      6115      6114      6116      6117      6115      6114      6116      6118
      6115      6114      6116      6119      6115      6114      6120      6121
      6115      6114      6120      6122      6115      6114      6120      6123
      6116      6114      6120      6121      6116      6114      6120      6122
      6116      6114      6120      6123      6117      6116      6114      6120
      6118      6116      6114      6120      6119      6116      6114      6120
      6120      6123      6126      6127      6120      6123      6126      6128
      6120      6123      6126      6129      6121      6120      6123      6124
      6121      6120      6123      6125      6121      6120      6123      6126
      6122      6120      6123      6124      6122      6120      6123      6125
      6122      6120      6123      6126      6123      6126      6129      6130
      6123      6126      6129      6131      6123      6126      6129      6135
      6124      6123      6126      6127      6124      6123      6126      6128
      6124      6123      6126      6129      6125      6123      6126      6127
      6125      6123      6126      6128      6125      6123      6126      6129
      6126      6129      6131      6132      6126      6129      6131      6133
      6126      6129      6131      6134      6126      6129      6135      6136
      6126      6129      6135      6137      6126      6129      6135      6138
      6127      6126      6129      6130      6127      6126      6129      6131
      6127      6126      6129      6135      6128      6126      6129      6130
      6128      6126      6129      6131      6128      6126      6129      6135
      6130      6129      6131      6132      6130      6129      6131      6133
      6130      6129      6131      6134      6130      6129      6135      6136
      6130      6129      6135      6137      6130      6129      6135      6138
      6131      6129      6135      6136      6131      6129      6135      6137
      6131      6129      6135      6138      6132      6131      6129      6135
      6133      6131      6129      6135      6134      6131      6129      6135
      6139      6143      6146      6147      6139      6143      6146      6177
      6139      6185      6182      6177      6139      6185      6182      6183
      6139      6185      6182      6184      6140      6139      6141      6142
      6140      6139      6143      6144      6140      6139      6143      6145
      6140      6139      6143      6146      6140      6139      6185      6182
      6140      6139      6185      6186      6140      6139      6185      6187
      6141      6139      6143      6144      6141      6139      6143      6145
      6141      6139      6143      6146      6141      6139      6185      6182
      6141      6139      6185      6186      6141      6139      6185      6187
      6142      6141      6139      6143      6142      6141      6139      6185
      6143      6139      6185      6182      6143      6139      6185      6186
      6143      6139      6185      6187      6143      6146      6147      6148
      6143      6146      6147      6149      6143      6146      6177      6175
      6143      6146      6177      6178      6143      6146      6177      6182
      6144      6143      6139      6185      6144      6143      6146      6147
      6144      6143      6146      6177      6145      6143      6139      6185
      6145      6143      6146      6147      6145      6143      6146      6177
      6146      6143      6139      6185      6146      6147      6149      6150
      6146      6147      6149      6151      6146      6147      6149      6152
      6146      6177      6175      6152      6146      6177      6175      6172
      6146      6177      6175      6176      6146      6177      6178      6179
      6146      6177      6178      6180      6146      6177      6178      6181
      6146      6177      6182      6183      6146      6177      6182      6184
      6146      6177      6182      6185      6147      6146      6177      6175
      6147      6146      6177      6178      6147      6146      6177      6182
      6147      6149      6152      6153      6147      6149      6152      6154
      6147      6149      6152      6175      6148      6147      6146      6177
      6148      6147      6149      6150      6148      6147      6149      6151
      6148      6147      6149      6152      6149      6147      6146      6177
      6149      6152      6154      6155      6149      6152      6154      6156
      6149      6152      6154      6164      6149      6152      6175      6172
      6149      6152      6175      6176      6149      6152      6175      6177
      6150      6149      6152      6153      6150      6149      6152      6154
      6150      6149      6152      6175      6151      6149      6152      6153
      6151      6149      6152      6154      6151      6149      6152      6175
      6152      6154      6156      6157      6152      6154      6156      6158
      6152      6154      6156      6159      6152      6154      6164      6162
      6152      6154      6164      6165      6152      6154      6164      6169
      6152      6175      6172      6169      6152      6175      6172      6173
      6152      6175      6172      6174      6152      6175      6177      6178
      6152      6175      6177      6182      6153      6152      6154      6155
      6153      6152      6154      6156      6153      6152      6154      6164
      6153      6152      6175      6172      6153      6152      6175      6176
      6153      6152      6175      6177      6154      6152      6175      6172
      6154      6152      6175      6176      6154      6152      6175      6177
      6154      6156      6159      6160      6154      6156      6159      6161
      6154      6156      6159      6162      6154      6164      6162      6159
      6154      6164      6162      6163      6154      6164      6162      6188
      6154      6164      6165      6166      6154      6164      6165      6167
      6154      6164      6165      6168      6154      6164      6169      6170
      6154      6164      6169      6171      6154      6164      6169      6172
      6155      6154      6152      6175      6155      6154      6156      6157
      6155      6154      6156      6158      6155      6154      6156      6159
      6155      6154      6164      6162      6155      6154      6164      6165
      6155      6154      6164      6169      6156      6154      6152      6175
      6156      6154      6164      6162      6156      6154      6164      6165
      6156      6154      6164      6169      6156      6159      6162      6163
      6156      6159      6162      6164      6156      6159      6162      6188
      6157      6156      6154      6164      6157      6156      6159      6160
      6157      6156      6159      6161      6157      6156      6159      6162
      6158      6156      6154      6164      6158      6156      6159      6160
      6158      6156      6159      6161      6158      6156      6159      6162
      6159      6156      6154      6164      6159      6162      6164      6165
      6159      6162      6164      6169      6159      6162      6188      6189
      6159      6162      6188      6190      6159      6162      6188      6194
      6160      6159      6162      6163      6160      6159      6162      6164
      6160      6159      6162      6188      6161      6159      6162      6163
      6161      6159      6162      6164      6161      6159      6162      6188
      6162      6164      6165      6166      6162      6164      6165      6167
      6162      6164      6165      6168      6162      6164      6169      6170
      6162      6164      6169      6171      6162      6164      6169      6172
      6162      6188      6190      6191      6162      6188      6190      6192
      6162      6188      6190      6193      6162      6188      6194      6195
      6162      6188      6194      6196      6162      6188      6194      6197
      6163      6162      6164      6165      6163      6162      6164      6169
      6163      6162      6188      6189      6163      6162      6188      6190
      6163      6162      6188      6194      6164      6154      6152      6175
      6164      6162      6188      6189      6164      6162      6188      6190
      6164      6162      6188      6194      6164      6169      6172      6173
      6164      6169      6172      6174      6164      6169      6172      6175
      6165      6164      6162      6188      6165      6164      6169      6170
      6165      6164      6169      6171      6165      6164      6169      6172
      6166      6165      6164      6169      6167      6165      6164      6169
      6168      6165      6164      6169      6169      6164      6162      6188
      6169      6172      6175      6176      6169      6172      6175      6177
      6170      6169      6172      6173      6170      6169      6172      6174
      6170      6169      6172      6175      6171      6169      6172      6173
      6171      6169      6172      6174      6171      6169      6172      6175
      6172      6175      6177      6178      6172      6175      6177      6182
      6173      6172      6175      6176      6173      6172      6175      6177
      6174      6172      6175      6176      6174      6172      6175      6177
      6175      6177      6178      6179      6175      6177      6178      6180
      6175      6177      6178      6181      6175      6177      6182      6183
      6175      6177      6182      6184      6175      6177      6182      6185
      6176      6175      6177      6178      6176      6175      6177      6182
      6177      6182      6185      6186      6177      6182      6185      6187
      6178      6177      6182      6183      6178      6177      6182      6184
      6178      6177      6182      6185      6179      6178      6177      6182
      6180      6178      6177      6182      6181      6178      6177      6182
      6183      6182      6185      6186      6183      6182      6185      6187
      6184      6182      6185      6186      6184      6182      6185      6187
      6188      6194      6197      6198      6188      6194      6197      6199
      6188      6194      6197      6200      6189      6188      6190      6191
      6189      6188      6190      6192      6189      6188      6190      6193
      6189      6188      6194      6195      6189      6188      6194      6196
      6189      6188      6194      6197      6190      6188      6194      6195
      6190      6188      6194      6196      6190      6188      6194      6197
      6191      6190      6188      6194      6192      6190      6188      6194
      6193      6190      6188      6194      6194      6197      6200      6201
      6194      6197      6200      6202      6194      6197      6200      6203
      6195      6194      6197      6198      6195      6194      6197      6199
      6195      6194      6197      6200      6196      6194      6197      6198
      6196      6194      6197      6199      6196      6194      6197      6200
      6197      6200      6203      6204      6197      6200      6203      6205
      6197      6200      6203      6209      6198      6197      6200      6201
      6198      6197      6200      6202      6198      6197      6200      6203
      6199      6197      6200      6201      6199      6197      6200      6202
      6199      6197      6200      6203      6200      6203      6205      6206
      6200      6203      6205      6207      6200      6203      6205      6208
      6200      6203      6209      6210      6200      6203      6209      6211
      6200      6203      6209      6212      6201      6200      6203      6204
      6201      6200      6203      6205      6201      6200      6203      6209
      6202      6200      6203      6204      6202      6200      6203      6205
      6202      6200      6203      6209      6204      6203      6205      6206
      6204      6203      6205      6207      6204      6203      6205      6208
      6204      6203      6209      6210      6204      6203      6209      6211
      6204      6203      6209      6212      6205      6203      6209      6210
      6205      6203      6209      6211      6205      6203      6209      6212
      6206      6205      6203      6209      6207      6205      6203      6209
      6208      6205      6203      6209     20869     20882     20885     20886
     20869     20882     20885     20887     20869     20882     20885     20891
     20870     20869     20874     20875     20870     20869     20874     20876
     20870     20869     20874     20877     20870     20869     20878     20879
     20870     20869     20878     20880     20870     20869     20878     20881
     20870     20869     20882     20883     20870     20869     20882     20884
     20870     20869     20882     20885     20871     20870     20869     20874
     20871     20870     20869     20878     20871     20870     20869     20882
     20872     20870     20869     20874     20872     20870     20869     20878
     20872     20870     20869     20882     20873     20870     20869     20874
     20873     20870     20869     20878     20873     20870     20869     20882
     20874     20869     20878     20879     20874     20869     20878     20880
     20874     20869     20878     20881     20874     20869     20882     20883
     20874     20869     20882     20884     20874     20869     20882     20885
     20875     20874     20869     20878     20875     20874     20869     20882
     20876     20874     20869     20878     20876     20874     20869     20882
     20877     20874     20869     20878     20877     20874     20869     20882
     20878     20869     20882     20883     20878     20869     20882     20884
     20878     20869     20882     20885     20879     20878     20869     20882
     20880     20878     20869     20882     20881     20878     20869     20882
     20882     20885     20891     20888     20883     20882     20885     20886
     20883     20882     20885     20887     20883     20882     20885     20891
     20884     20882     20885     20886     20884     20882     20885     20887
     20884     20882     20885     20891     20885     20891     20888     20889
     20885     20891     20888     20890     20885     20891     20888     20892
     20886     20885     20891     20888     20887     20885     20891     20888
     20888     20892     20893     20894     20888     20892     20893     20895
     20888     20892     20893     20896     20889     20888     20892     20893
     20890     20888     20892     20893     20891     20888     20892     20893
     20892     20893     20896     20897     20892     20893     20896     20898
     20892     20893     20896     20904     20893     20896     20898     20899
     20893     20896     20904     20905     20893     20896     20904     20906
     20893     20896     20904     20907     20894     20893     20896     20897
     20894     20893     20896     20898     20894     20893     20896     20904
     20895     20893     20896     20897     20895     20893     20896     20898
     20895     20893     20896     20904     20896     20898     20899     20900
     20896     20898     20899     20901     20896     20904     20907     20908
     20897     20896     20898     20899     20897     20896     20904     20905
     20897     20896     20904     20906     20897     20896     20904     20907
     20898     20896     20904     20905     20898     20896     20904     20906
     20898     20896     20904     20907     20898     20899     20901     20902
     20898     20899     20901     20903     20898     20899     20901     20913
     20899     20898     20896     20904     20899     20901     20913     20914
     20899     20901     20913     20915     20899     20901     20913     20916
     20900     20899     20901     20902     20900     20899     20901     20903
     20900     20899     20901     20913     20901     20913     20916     20917
     20901     20913     20916     20918     20901     20913     20916     20919
     20902     20901     20913     20914     20902     20901     20913     20915
     20902     20901     20913     20916     20903     20901     20913     20914
     20903     20901     20913     20915     20903     20901     20913     20916
     20904     20907     20908     20909     20904     20907     20908     20910
     20905     20904     20907     20908     20906     20904     20907     20908
     20907     20908     20910     20911     20907     20908     20910     20912
     20907     20908     20910     20958     20908     20910     20958     20959
     20908     20910     20958     20960     20908     20910     20958     20961
     20909     20908     20910     20911     20909     20908     20910     20912
     20909     20908     20910     20958     20910     20958     20961     20962
     20910     20958     20961     20963     20910     20958     20961     20964
     20911     20910     20958     20959     20911     20910     20958     20960
     20911     20910     20958     20961     20912     20910     20958     20959
     20912     20910     20958     20960     20912     20910     20958     20961
     20913     20916     20919     20920     20913     20916     20919     20921
     20913     20916     20919     20922     20914     20913     20916     20917
     20914     20913     20916     20918     20914     20913     20916     20919
     20915     20913     20916     20917     20915     20913     20916     20918
     20915     20913     20916     20919     20916     20919     20922     20923
     20916     20919     20922     20924     20916     20919     20922     20925
     20917     20916     20919     20920     20917     20916     20919     20921
     20917     20916     20919     20922     20918     20916     20919     20920
     20918     20916     20919     20921     20918     20916     20919     20922
     20919     20922     20925     20926     20919     20922     20925     20927
     20919     20922     20925     20928     20920     20919     20922     20923
     20920     20919     20922     20924     20920     20919     20922     20925
     20921     20919     20922     20923     20921     20919     20922     20924
     20921     20919     20922     20925     20922     20925     20928     20929
     20922     20925     20928     20930     20922     20925     20928     20931
     20923     20922     20925     20926     20923     20922     20925     20927
     20923     20922     20925     20928     20924     20922     20925     20926
     20924     20922     20925     20927     20924     20922     20925     20928
     20925     20928     20931     20932     20925     20928     20931     20933
     20926     20925     20928     20929     20926     20925     20928     20930
     20926     20925     20928     20931     20927     20925     20928     20929
     20927     20925     20928     20930     20927     20925     20928     20931
     20928     20931     20933     20934     20928     20931     20933     20935
     20929     20928     20931     20932     20929     20928     20931     20933
     20930     20928     20931     20932     20930     20928     20931     20933
     20931     20933     20935     20936     20931     20933     20935     20937
     20931     20933     20935     20938     20932     20931     20933     20934
     20932     20931     20933     20935     20933     20935     20938     20939
     20933     20935     20938     20940     20934     20933     20935     20936
     20934     20933     20935     20937     20934     20933     20935     20938
     20935     20938     20940     20941     20935     20938     20940     20942
     20936     20935     20938     20939     20936     20935     20938     20940
     20937     20935     20938     20939     20937     20935     20938     20940
     20938     20940     20942     20943     20938     20940     20942     20944
     20938     20940     20942     20945     20939     20938     20940     20941
     20939     20938     20940     20942     20940     20942     20945     20946
     20940     20942     20945     20947     20940     20942     20945     20948
     20941     20940     20942     20943     20941     20940     20942     20944
     20941     20940     20942     20945     20942     20945     20948     20949
     20942     20945     20948     20950     20942     20945     20948     20951
     20943     20942     20945     20946     20943     20942     20945     20947
     20943     20942     20945     20948     20944     20942     20945     20946
     20944     20942     20945     20947     20944     20942     20945     20948
     20945     20948     20951     20952     20945     20948     20951     20953
     20945     20948     20951     20954     20946     20945     20948     20949
     20946     20945     20948     20950     20946     20945     20948     20951
     20947     20945     20948     20949     20947     20945     20948     20950
     20947     20945     20948     20951     20948     20951     20954     20955
     20948     20951     20954     20956     20948     20951     20954     20957
     20949     20948     20951     20952     20949     20948     20951     20953
     20949     20948     20951     20954     20950     20948     20951     20952
     20950     20948     20951     20953     20950     20948     20951     20954
     20952     20951     20954     20955     20952     20951     20954     20956
     20952     20951     20954     20957     20953     20951     20954     20955
     20953     20951     20954     20956     20953     20951     20954     20957
     20958     20961     20964     20965     20958     20961     20964     20966
     20958     20961     20964     20967     20959     20958     20961     20962
     20959     20958     20961     20963     20959     20958     20961     20964
     20960     20958     20961     20962     20960     20958     20961     20963
     20960     20958     20961     20964     20961     20964     20967     20968
     20961     20964     20967     20969     20961     20964     20967     20970
     20962     20961     20964     20965     20962     20961     20964     20966
     20962     20961     20964     20967     20963     20961     20964     20965
     20963     20961     20964     20966     20963     20961     20964     20967
     20964     20967     20970     20971     20964     20967     20970     20972
     20964     20967     20970     20973     20965     20964     20967     20968
     20965     20964     20967     20969     20965     20964     20967     20970
     20966     20964     20967     20968     20966     20964     20967     20969
     20966     20964     20967     20970     20967     20970     20973     20974
     20967     20970     20973     20975     20967     20970     20973     20976
     20968     20967     20970     20971     20968     20967     20970     20972
     20968     20967     20970     20973     20969     20967     20970     20971
     20969     20967     20970     20972     20969     20967     20970     20973
     20970     20973     20976     20977     20970     20973     20976     20978
     20970     20973     20976     20979     20971     20970     20973     20974
     20971     20970     20973     20975     20971     20970     20973     20976
     20972     20970     20973     20974     20972     20970     20973     20975
     20972     20970     20973     20976     20973     20976     20979     20980
     20973     20976     20979     20981     20973     20976     20979     20982
     20974     20973     20976     20977     20974     20973     20976     20978
     20974     20973     20976     20979     20975     20973     20976     20977
     20975     20973     20976     20978     20975     20973     20976     20979
     20976     20979     20982     20983     20976     20979     20982     20984
     20976     20979     20982     20985     20977     20976     20979     20980
     20977     20976     20979     20981     20977     20976     20979     20982
     20978     20976     20979     20980     20978     20976     20979     20981
     20978     20976     20979     20982     20979     20982     20985     20986
     20979     20982     20985     20987     20979     20982     20985     20988
     20980     20979     20982     20983     20980     20979     20982     20984
     20980     20979     20982     20985     20981     20979     20982     20983
     20981     20979     20982     20984     20981     20979     20982     20985
     20982     20985     20988     20989     20982     20985     20988     20990
     20982     20985     20988     20991     20983     20982     20985     20986
     20983     20982     20985     20987     20983     20982     20985     20988
     20984     20982     20985     20986     20984     20982     20985     20987
     20984     20982     20985     20988     20985     20988     20991     20992
     20985     20988     20991     20993     20985     20988     20991     20994
     20986     20985     20988     20989     20986     20985     20988     20990
     20986     20985     20988     20991     20987     20985     20988     20989
     20987     20985     20988     20990     20987     20985     20988     20991
     20988     20991     20994     20995     20988     20991     20994     20996
     20988     20991     20994     20997     20989     20988     20991     20992
     20989     20988     20991     20993     20989     20988     20991     20994
     20990     20988     20991     20992     20990     20988     20991     20993
     20990     20988     20991     20994     20991     20994     20997     20998
     20991     20994     20997     20999     20991     20994     20997     21000
     20992     20991     20994     20995     20992     20991     20994     20996
     20992     20991     20994     20997     20993     20991     20994     20995
     20993     20991     20994     20996     20993     20991     20994     20997
     20994     20997     21000     21001     20994     20997     21000     21002
     20994     20997     21000     21003     20995     20994     20997     20998
     20995     20994     20997     20999     20995     20994     20997     21000
     20996     20994     20997     20998     20996     20994     20997     20999
     20996     20994     20997     21000     20997     21000     21003     21004
     20997     21000     21003     21005     20997     21000     21003     21006
     20998     20997     21000     21001     20998     20997     21000     21002
     20998     20997     21000     21003     20999     20997     21000     21001
     20999     20997     21000     21002     20999     20997     21000     21003
     21001     21000     21003     21004     21001     21000     21003     21005
     21001     21000     21003     21006     21002     21000     21003     21004
     21002     21000     21003     21005     21002     21000     21003     21006
      6213      6217      6220      6221      6213      6217      6220      6251
      6213      6259      6256      6251      6213      6259      6256      6257
      6213      6259      6256      6258      6214      6213      6215      6216
      6214      6213      6217      6218      6214      6213      6217      6219
      6214      6213      6217      6220      6214      6213      6259      6256
      6214      6213      6259      6260      6214      6213      6259      6261
      6215      6213      6217      6218      6215      6213      6217      6219
      6215      6213      6217      6220      6215      6213      6259      6256
      6215      6213      6259      6260      6215      6213      6259      6261
      6216      6215      6213      6217      6216      6215      6213      6259
      6217      6213      6259      6256      6217      6213      6259      6260
      6217      6213      6259      6261      6217      6220      6221      6222
      6217      6220      6221      6223      6217      6220      6251      6249
      6217      6220      6251      6252      6217      6220      6251      6256
      6218      6217      6213      6259      6218      6217      6220      6221
      6218      6217      6220      6251      6219      6217      6213      6259
      6219      6217      6220      6221      6219      6217      6220      6251
      6220      6217      6213      6259      6220      6221      6223      6224
      6220      6221      6223      6225      6220      6221      6223      6226
      6220      6251      6249      6226      6220      6251      6249      6246
      6220      6251      6249      6250      6220      6251      6252      6253
      6220      6251      6252      6254      6220      6251      6252      6255
      6220      6251      6256      6257      6220      6251      6256      6258
      6220      6251      6256      6259      6221      6220      6251      6249
      6221      6220      6251      6252      6221      6220      6251      6256
      6221      6223      6226      6227      6221      6223      6226      6228
      6221      6223      6226      6249      6222      6221      6220      6251
      6222      6221      6223      6224      6222      6221      6223      6225
      6222      6221      6223      6226      6223      6221      6220      6251
      6223      6226      6228      6229      6223      6226      6228      6230
      6223      6226      6228      6238      6223      6226      6249      6246
      6223      6226      6249      6250      6223      6226      6249      6251
      6224      6223      6226      6227      6224      6223      6226      6228
      6224      6223      6226      6249      6225      6223      6226      6227
      6225      6223      6226      6228      6225      6223      6226      6249
      6226      6228      6230      6231      6226      6228      6230      6232
      6226      6228      6230      6233      6226      6228      6238      6236
      6226      6228      6238      6239      6226      6228      6238      6243
      6226      6249      6246      6243      6226      6249      6246      6247
      6226      6249      6246      6248      6226      6249      6251      6252
      6226      6249      6251      6256      6227      6226      6228      6229
      6227      6226      6228      6230      6227      6226      6228      6238
      6227      6226      6249      6246      6227      6226      6249      6250
      6227      6226      6249      6251      6228      6226      6249      6246
      6228      6226      6249      6250      6228      6226      6249      6251
      6228      6230      6233      6234      6228      6230      6233      6235
      6228      6230      6233      6236      6228      6238      6236      6233
      6228      6238      6236      6237      6228      6238      6236      6262
      6228      6238      6239      6240      6228      6238      6239      6241
      6228      6238      6239      6242      6228      6238      6243      6244
      6228      6238      6243      6245      6228      6238      6243      6246
      6229      6228      6226      6249      6229      6228      6230      6231
      6229      6228      6230      6232      6229      6228      6230      6233
      6229      6228      6238      6236      6229      6228      6238      6239
      6229      6228      6238      6243      6230      6228      6226      6249
      6230      6228      6238      6236      6230      6228      6238      6239
      6230      6228      6238      6243      6230      6233      6236      6237
      6230      6233      6236      6238      6230      6233      6236      6262
      6231      6230      6228      6238      6231      6230      6233      6234
      6231      6230      6233      6235      6231      6230      6233      6236
      6232      6230      6228      6238      6232      6230      6233      6234
      6232      6230      6233      6235      6232      6230      6233      6236
      6233      6230      6228      6238      6233      6236      6238      6239
      6233      6236      6238      6243      6233      6236      6262      6263
      6233      6236      6262      6264      6233      6236      6262      6268
      6234      6233      6236      6237      6234      6233      6236      6238
      6234      6233      6236      6262      6235      6233      6236      6237
      6235      6233      6236      6238      6235      6233      6236      6262
      6236      6238      6239      6240      6236      6238      6239      6241
      6236      6238      6239      6242      6236      6238      6243      6244
      6236      6238      6243      6245      6236      6238      6243      6246
      6236      6262      6264      6265      6236      6262      6264      6266
      6236      6262      6264      6267      6236      6262      6268      6269
      6236      6262      6268      6270      6236      6262      6268      6271
      6237      6236      6238      6239      6237      6236      6238      6243
      6237      6236      6262      6263      6237      6236      6262      6264
      6237      6236      6262      6268      6238      6228      6226      6249
      6238      6236      6262      6263      6238      6236      6262      6264
      6238      6236      6262      6268      6238      6243      6246      6247
      6238      6243      6246      6248      6238      6243      6246      6249
      6239      6238      6236      6262      6239      6238      6243      6244
      6239      6238      6243      6245      6239      6238      6243      6246
      6240      6239      6238      6243      6241      6239      6238      6243
      6242      6239      6238      6243      6243      6238      6236      6262
      6243      6246      6249      6250      6243      6246      6249      6251
      6244      6243      6246      6247      6244      6243      6246      6248
      6244      6243      6246      6249      6245      6243      6246      6247
      6245      6243      6246      6248      6245      6243      6246      6249
      6246      6249      6251      6252      6246      6249      6251      6256
      6247      6246      6249      6250      6247      6246      6249      6251
      6248      6246      6249      6250      6248      6246      6249      6251
      6249      6251      6252      6253      6249      6251      6252      6254
      6249      6251      6252      6255      6249      6251      6256      6257
      6249      6251      6256      6258      6249      6251      6256      6259
      6250      6249      6251      6252      6250      6249      6251      6256
      6251      6256      6259      6260      6251      6256      6259      6261
      6252      6251      6256      6257      6252      6251      6256      6258
      6252      6251      6256      6259      6253      6252      6251      6256
      6254      6252      6251      6256      6255      6252      6251      6256
      6257      6256      6259      6260      6257      6256      6259      6261
      6258      6256      6259      6260      6258      6256      6259      6261
      6262      6268      6271      6272      6262      6268      6271      6273
      6262      6268      6271      6274      6263      6262      6264      6265
      6263      6262      6264      6266      6263      6262      6264      6267
      6263      6262      6268      6269      6263      6262      6268      6270
      6263      6262      6268      6271      6264      6262      6268      6269
      6264      6262      6268      6270      6264      6262      6268      6271
      6265      6264      6262      6268      6266      6264      6262      6268
      6267      6264      6262      6268      6268      6271      6274      6275
      6268      6271      6274      6276      6268      6271      6274      6277
      6269      6268      6271      6272      6269      6268      6271      6273
      6269      6268      6271      6274      6270      6268      6271      6272
      6270      6268      6271      6273      6270      6268      6271      6274
      6271      6274      6277      6278      6271      6274      6277      6279
      6271      6274      6277      6283      6272      6271      6274      6275
      6272      6271      6274      6276      6272      6271      6274      6277
      6273      6271      6274      6275      6273      6271      6274      6276
      6273      6271      6274      6277      6274      6277      6279      6280
      6274      6277      6279      6281      6274      6277      6279      6282
      6274      6277      6283      6284      6274      6277      6283      6285
      6274      6277      6283      6286      6275      6274      6277      6278
      6275      6274      6277      6279      6275      6274      6277      6283
      6276      6274      6277      6278      6276      6274      6277      6279
      6276      6274      6277      6283      6278      6277      6279      6280
      6278      6277      6279      6281      6278      6277      6279      6282
      6278      6277      6283      6284      6278      6277      6283      6285
      6278      6277      6283      6286      6279      6277      6283      6284
      6279      6277      6283      6285      6279      6277      6283      6286
      6280      6279      6277      6283      6281      6279      6277      6283
      6282      6279      6277      6283     18965     18969     18972     18973
     18965     18969     18972     18974     18965     18969     18972     18978
     18966     18965     18969     18970     18966     18965     18969     18971
     18966     18965     18969     18972     18967     18965     18969     18970
     18967     18965     18969     18971     18967     18965     18969     18972
     18968     18965     18969     18970     18968     18965     18969     18971
     18968     18965     18969     18972     18969     18972     18978     18975
     18970     18969     18972     18973     18970     18969     18972     18974
     18970     18969     18972     18978     18971     18969     18972     18973
     18971     18969     18972     18974     18971     18969     18972     18978
     18972     18978     18975     18976     18972     18978     18975     18977
     18972     18978     18975     18979     18973     18972     18978     18975
     18974     18972     18978     18975     18975     18979     18980     18981
     18975     18979     18980     18982     18975     18979     18980     18983
     18976     18975     18979     18980     18977     18975     18979     18980
     18978     18975     18979     18980     18979     18980     18983     18984
     18979     18980     18983     18985     18979     18980     18983     18991
     18980     18983     18985     18986     18980     18983     18991     18992
     18980     18983     18991     18993     18980     18983     18991     18994
     18981     18980     18983     18984     18981     18980     18983     18985
     18981     18980     18983     18991     18982     18980     18983     18984
     18982     18980     18983     18985     18982     18980     18983     18991
     18983     18985     18986     18987     18983     18985     18986     18988
     18983     18991     18994     18995     18984     18983     18985     18986
     18984     18983     18991     18992     18984     18983     18991     18993
     18984     18983     18991     18994     18985     18983     18991     18992
     18985     18983     18991     18993     18985     18983     18991     18994
     18985     18986     18988     18989     18985     18986     18988     18990
     18985     18986     18988     19000     18986     18985     18983     18991
     18986     18988     19000     19001     18986     18988     19000     19002
     18986     18988     19000     19003     18987     18986     18988     18989
     18987     18986     18988     18990     18987     18986     18988     19000
     18988     19000     19003     19004     18988     19000     19003     19005
     18988     19000     19003     19006     18989     18988     19000     19001
     18989     18988     19000     19002     18989     18988     19000     19003
     18990     18988     19000     19001     18990     18988     19000     19002
     18990     18988     19000     19003     18991     18994     18995     18996
     18991     18994     18995     18997     18992     18991     18994     18995
     18993     18991     18994     18995     18994     18995     18997     18998
     18994     18995     18997     18999     18994     18995     18997     19047
     18995     18997     19047     19048     18995     18997     19047     19049
     18995     18997     19047     19050     18996     18995     18997     18998
     18996     18995     18997     18999     18996     18995     18997     19047
     18997     19047     19050     19051     18997     19047     19050     19052
     18997     19047     19050     19053     18998     18997     19047     19048
     18998     18997     19047     19049     18998     18997     19047     19050
     18999     18997     19047     19048     18999     18997     19047     19049
     18999     18997     19047     19050     19000     19003     19006     19007
     19000     19003     19006     19008     19001     19000     19003     19004
     19001     19000     19003     19005     19001     19000     19003     19006
     19002     19000     19003     19004     19002     19000     19003     19005
     19002     19000     19003     19006     19003     19006     19008     19009
     19003     19006     19008     19010     19004     19003     19006     19007
     19004     19003     19006     19008     19005     19003     19006     19007
     19005     19003     19006     19008     19006     19008     19010     19011
     19006     19008     19010     19012     19006     19008     19010     19013
     19007     19006     19008     19009     19007     19006     19008     19010
     19008     19010     19013     19014     19008     19010     19013     19015
     19009     19008     19010     19011     19009     19008     19010     19012
     19009     19008     19010     19013     19010     19013     19015     19016
     19010     19013     19015     19017     19011     19010     19013     19014
     19011     19010     19013     19015     19012     19010     19013     19014
     19012     19010     19013     19015     19013     19015     19017     19018
     19013     19015     19017     19019     19013     19015     19017     19020
     19014     19013     19015     19016     19014     19013     19015     19017
     19015     19017     19020     19021     19015     19017     19020     19022
     19016     19015     19017     19018     19016     19015     19017     19019
     19016     19015     19017     19020     19017     19020     19022     19023
     19017     19020     19022     19024     19018     19017     19020     19021
     19018     19017     19020     19022     19019     19017     19020     19021
     19019     19017     19020     19022     19020     19022     19024     19025
     19020     19022     19024     19026     19020     19022     19024     19027
     19021     19020     19022     19023     19021     19020     19022     19024
     19022     19024     19027     19028     19022     19024     19027     19029
     19023     19022     19024     19025     19023     19022     19024     19026
     19023     19022     19024     19027     19024     19027     19029     19030
     19024     19027     19029     19031     19025     19024     19027     19028
     19025     19024     19027     19029     19026     19024     19027     19028
     19026     19024     19027     19029     19027     19029     19031     19032
     19027     19029     19031     19033     19027     19029     19031     19034
     19028     19027     19029     19030     19028     19027     19029     19031
     19029     19031     19034     19035     19029     19031     19034     19036
     19029     19031     19034     19037     19030     19029     19031     19032
     19030     19029     19031     19033     19030     19029     19031     19034
     19031     19034     19037     19038     19031     19034     19037     19039
     19031     19034     19037     19040     19032     19031     19034     19035
     19032     19031     19034     19036     19032     19031     19034     19037
     19033     19031     19034     19035     19033     19031     19034     19036
     19033     19031     19034     19037     19034     19037     19040     19041
     19034     19037     19040     19042     19034     19037     19040     19043
     19035     19034     19037     19038     19035     19034     19037     19039
     19035     19034     19037     19040     19036     19034     19037     19038
     19036     19034     19037     19039     19036     19034     19037     19040
     19037     19040     19043     19044     19037     19040     19043     19045
     19037     19040     19043     19046     19038     19037     19040     19041
     19038     19037     19040     19042     19038     19037     19040     19043
     19039     19037     19040     19041     19039     19037     19040     19042
     19039     19037     19040     19043     19041     19040     19043     19044
     19041     19040     19043     19045     19041     19040     19043     19046
     19042     19040     19043     19044     19042     19040     19043     19045
     19042     19040     19043     19046     19047     19050     19053     19054
     19047     19050     19053     19055     19047     19050     19053     19056
     19048     19047     19050     19051     19048     19047     19050     19052
     19048     19047     19050     19053     19049     19047     19050     19051
     19049     19047     19050     19052     19049     19047     19050     19053
     19050     19053     19056     19057     19050     19053     19056     19058
     19050     19053     19056     19059     19051     19050     19053     19054
     19051     19050     19053     19055     19051     19050     19053     19056
     19052     19050     19053     19054     19052     19050     19053     19055
     19052     19050     19053     19056     19053     19056     19059     19060
     19053     19056     19059     19061     19053     19056     19059     19062
     19054     19053     19056     19057     19054     19053     19056     19058
     19054     19053     19056     19059     19055     19053     19056     19057
     19055     19053     19056     19058     19055     19053     19056     19059
     19056     19059     19062     19063     19056     19059     19062     19064
     19056     19059     19062     19065     19057     19056     19059     19060
     19057     19056     19059     19061     19057     19056     19059     19062
     19058     19056     19059     19060     19058     19056     19059     19061
     19058     19056     19059     19062     19059     19062     19065     19066
     19059     19062     19065     19067     19059     19062     19065     19068
     19060     19059     19062     19063     19060     19059     19062     19064
     19060     19059     19062     19065     19061     19059     19062     19063
     19061     19059     19062     19064     19061     19059     19062     19065
     19062     19065     19068     19069     19062     19065     19068     19070
     19062     19065     19068     19071     19063     19062     19065     19066
     19063     19062     19065     19067     19063     19062     19065     19068
     19064     19062     19065     19066     19064     19062     19065     19067
     19064     19062     19065     19068     19065     19068     19071     19072
     19065     19068     19071     19073     19065     19068     19071     19074
     19066     19065     19068     19069     19066     19065     19068     19070
     19066     19065     19068     19071     19067     19065     19068     19069
     19067     19065     19068     19070     19067     19065     19068     19071
     19068     19071     19074     19075     19068     19071     19074     19076
     19068     19071     19074     19077     19069     19068     19071     19072
     19069     19068     19071     19073     19069     19068     19071     19074
     19070     19068     19071     19072     19070     19068     19071     19073
     19070     19068     19071     19074     19071     19074     19077     19078
     19071     19074     19077     19079     19071     19074     19077     19080
     19072     19071     19074     19075     19072     19071     19074     19076
     19072     19071     19074     19077     19073     19071     19074     19075
     19073     19071     19074     19076     19073     19071     19074     19077
     19074     19077     19080     19081     19074     19077     19080     19082
     19074     19077     19080     19083     19075     19074     19077     19078
     19075     19074     19077     19079     19075     19074     19077     19080
     19076     19074     19077     19078     19076     19074     19077     19079
     19076     19074     19077     19080     19077     19080     19083     19084
     19077     19080     19083     19085     19077     19080     19083     19086
     19078     19077     19080     19081     19078     19077     19080     19082
     19078     19077     19080     19083     19079     19077     19080     19081
     19079     19077     19080     19082     19079     19077     19080     19083
     19080     19083     19086     19087     19080     19083     19086     19088
     19080     19083     19086     19089     19081     19080     19083     19084
     19081     19080     19083     19085     19081     19080     19083     19086
     19082     19080     19083     19084     19082     19080     19083     19085
     19082     19080     19083     19086     19083     19086     19089     19090
     19083     19086     19089     19091     19083     19086     19089     19092
     19084     19083     19086     19087     19084     19083     19086     19088
     19084     19083     19086     19089     19085     19083     19086     19087
     19085     19083     19086     19088     19085     19083     19086     19089
     19086     19089     19092     19093     19086     19089     19092     19094
     19086     19089     19092     19095     19087     19086     19089     19090
     19087     19086     19089     19091     19087     19086     19089     19092
     19088     19086     19089     19090     19088     19086     19089     19091
     19088     19086     19089     19092     19090     19089     19092     19093
     19090     19089     19092     19094     19090     19089     19092     19095
     19091     19089     19092     19093     19091     19089     19092     19094
     19091     19089     19092     19095      6287      6291      6294      6295
      6287      6291      6294      6325      6287      6333      6330      6325
      6287      6333      6330      6331      6287      6333      6330      6332
      6288      6287      6289      6290      6288      6287      6291      6292
      6288      6287      6291      6293      6288      6287      6291      6294
      6288      6287      6333      6330      6288      6287      6333      6334
      6288      6287      6333      6335      6289      6287      6291      6292
      6289      6287      6291      6293      6289      6287      6291      6294
      6289      6287      6333      6330      6289      6287      6333      6334
      6289      6287      6333      6335      6290      6289      6287      6291
      6290      6289      6287      6333      6291      6287      6333      6330
      6291      6287      6333      6334      6291      6287      6333      6335
      6291      6294      6295      6296      6291      6294      6295      6297
      6291      6294      6325      6323      6291      6294      6325      6326
      6291      6294      6325      6330      6292      6291      6287      6333
      6292      6291      6294      6295      6292      6291      6294      6325
      6293      6291      6287      6333      6293      6291      6294      6295
      6293      6291      6294      6325      6294      6291      6287      6333
      6294      6295      6297      6298      6294      6295      6297      6299
      6294      6295      6297      6300      6294      6325      6323      6300
      6294      6325      6323      6320      6294      6325      6323      6324
      6294      6325      6326      6327      6294      6325      6326      6328
      6294      6325      6326      6329      6294      6325      6330      6331
      6294      6325      6330      6332      6294      6325      6330      6333
      6295      6294      6325      6323      6295      6294      6325      6326
      6295      6294      6325      6330      6295      6297      6300      6301
      6295      6297      6300      6302      6295      6297      6300      6323
      6296      6295      6294      6325      6296      6295      6297      6298
      6296      6295      6297      6299      6296      6295      6297      6300
      6297      6295      6294      6325      6297      6300      6302      6303
      6297      6300      6302      6304      6297      6300      6302      6312
      6297      6300      6323      6320      6297      6300      6323      6324
      6297      6300      6323      6325      6298      6297      6300      6301
      6298      6297      6300      6302      6298      6297      6300      6323
      6299      6297      6300      6301      6299      6297      6300      6302
      6299      6297      6300      6323      6300      6302      6304      6305
      6300      6302      6304      6306      6300      6302      6304      6307
      6300      6302      6312      6310      6300      6302      6312      6313
      6300      6302      6312      6317      6300      6323      6320      6317
      6300      6323      6320      6321      6300      6323      6320      6322
      6300      6323      6325      6326      6300      6323      6325      6330
      6301      6300      6302      6303      6301      6300      6302      6304
      6301      6300      6302      6312      6301      6300      6323      6320
      6301      6300      6323      6324      6301      6300      6323      6325
      6302      6300      6323      6320      6302      6300      6323      6324
      6302      6300      6323      6325      6302      6304      6307      6308
      6302      6304      6307      6309      6302      6304      6307      6310
      6302      6312      6310      6307      6302      6312      6310      6311
      6302      6312      6310      6336      6302      6312      6313      6314
      6302      6312      6313      6315      6302      6312      6313      6316
      6302      6312      6317      6318      6302      6312      6317      6319
      6302      6312      6317      6320      6303      6302      6300      6323
      6303      6302      6304      6305      6303      6302      6304      6306
      6303      6302      6304      6307      6303      6302      6312      6310
      6303      6302      6312      6313      6303      6302      6312      6317
      6304      6302      6300      6323      6304      6302      6312      6310
      6304      6302      6312      6313      6304      6302      6312      6317
      6304      6307      6310      6311      6304      6307      6310      6312
      6304      6307      6310      6336      6305      6304      6302      6312
      6305      6304      6307      6308      6305      6304      6307      6309
      6305      6304      6307      6310      6306      6304      6302      6312
      6306      6304      6307      6308      6306      6304      6307      6309
      6306      6304      6307      6310      6307      6304      6302      6312
      6307      6310      6312      6313      6307      6310      6312      6317
      6307      6310      6336      6337      6307      6310      6336      6338
      6307      6310      6336      6342      6308      6307      6310      6311
      6308      6307      6310      6312      6308      6307      6310      6336
      6309      6307      6310      6311      6309      6307      6310      6312
      6309      6307      6310      6336      6310      6312      6313      6314
      6310      6312      6313      6315      6310      6312      6313      6316
      6310      6312      6317      6318      6310      6312      6317      6319
      6310      6312      6317      6320      6310      6336      6338      6339
      6310      6336      6338      6340      6310      6336      6338      6341
      6310      6336      6342      6343      6310      6336      6342      6344
      6310      6336      6342      6345      6311      6310      6312      6313
      6311      6310      6312      6317      6311      6310      6336      6337
      6311      6310      6336      6338      6311      6310      6336      6342
      6312      6302      6300      6323      6312      6310      6336      6337
      6312      6310      6336      6338      6312      6310      6336      6342
      6312      6317      6320      6321      6312      6317      6320      6322
      6312      6317      6320      6323      6313      6312      6310      6336
      6313      6312      6317      6318      6313      6312      6317      6319
      6313      6312      6317      6320      6314      6313      6312      6317
      6315      6313      6312      6317      6316      6313      6312      6317
      6317      6312      6310      6336      6317      6320      6323      6324
      6317      6320      6323      6325      6318      6317      6320      6321
      6318      6317      6320      6322      6318      6317      6320      6323
      6319      6317      6320      6321      6319      6317      6320      6322
      6319      6317      6320      6323      6320      6323      6325      6326
      6320      6323      6325      6330      6321      6320      6323      6324
      6321      6320      6323      6325      6322      6320      6323      6324
      6322      6320      6323      6325      6323      6325      6326      6327
      6323      6325      6326      6328      6323      6325      6326      6329
      6323      6325      6330      6331      6323      6325      6330      6332
      6323      6325      6330      6333      6324      6323      6325      6326
      6324      6323      6325      6330      6325      6330      6333      6334
      6325      6330      6333      6335      6326      6325      6330      6331
      6326      6325      6330      6332      6326      6325      6330      6333
      6327      6326      6325      6330      6328      6326      6325      6330
      6329      6326      6325      6330      6331      6330      6333      6334
      6331      6330      6333      6335      6332      6330      6333      6334
      6332      6330      6333      6335      6336      6342      6345      6346
      6336      6342      6345      6347      6336      6342      6345      6348
      6337      6336      6338      6339      6337      6336      6338      6340
      6337      6336      6338      6341      6337      6336      6342      6343
      6337      6336      6342      6344      6337      6336      6342      6345
      6338      6336      6342      6343      6338      6336      6342      6344
      6338      6336      6342      6345      6339      6338      6336      6342
      6340      6338      6336      6342      6341      6338      6336      6342
      6342      6345      6348      6349      6342      6345      6348      6350
      6342      6345      6348      6351      6343      6342      6345      6346
      6343      6342      6345      6347      6343      6342      6345      6348
      6344      6342      6345      6346      6344      6342      6345      6347
      6344      6342      6345      6348      6345      6348      6351      6352
      6345      6348      6351      6353      6345      6348      6351      6357
      6346      6345      6348      6349      6346      6345      6348      6350
      6346      6345      6348      6351      6347      6345      6348      6349
      6347      6345      6348      6350      6347      6345      6348      6351
      6348      6351      6353      6354      6348      6351      6353      6355
      6348      6351      6353      6356      6348      6351      6357      6358
      6348      6351      6357      6359      6348      6351      6357      6360
      6349      6348      6351      6352      6349      6348      6351      6353
      6349      6348      6351      6357      6350      6348      6351      6352
      6350      6348      6351      6353      6350      6348      6351      6357
      6352      6351      6353      6354      6352      6351      6353      6355
      6352      6351      6353      6356      6352      6351      6357      6358
      6352      6351      6357      6359      6352      6351      6357      6360
      6353      6351      6357      6358      6353      6351      6357      6359
      6353      6351      6357      6360      6354      6353      6351      6357
      6355      6353      6351      6357      6356      6353      6351      6357
      6361      6365      6368      6369      6361      6365      6368      6399
      6361      6407      6404      6399      6361      6407      6404      6405
      6361      6407      6404      6406      6362      6361      6363      6364
      6362      6361      6365      6366      6362      6361      6365      6367
      6362      6361      6365      6368      6362      6361      6407      6404
      6362      6361      6407      6408      6362      6361      6407      6409
      6363      6361      6365      6366      6363      6361      6365      6367
      6363      6361      6365      6368      6363      6361      6407      6404
      6363      6361      6407      6408      6363      6361      6407      6409
      6364      6363      6361      6365      6364      6363      6361      6407
      6365      6361      6407      6404      6365      6361      6407      6408
      6365      6361      6407      6409      6365      6368      6369      6370
      6365      6368      6369      6371      6365      6368      6399      6397
      6365      6368      6399      6400      6365      6368      6399      6404
      6366      6365      6361      6407      6366      6365      6368      6369
      6366      6365      6368      6399      6367      6365      6361      6407
      6367      6365      6368      6369      6367      6365      6368      6399
      6368      6365      6361      6407      6368      6369      6371      6372
      6368      6369      6371      6373      6368      6369      6371      6374
      6368      6399      6397      6374      6368      6399      6397      6394
      6368      6399      6397      6398      6368      6399      6400      6401
      6368      6399      6400      6402      6368      6399      6400      6403
      6368      6399      6404      6405      6368      6399      6404      6406
      6368      6399      6404      6407      6369      6368      6399      6397
      6369      6368      6399      6400      6369      6368      6399      6404
      6369      6371      6374      6375      6369      6371      6374      6376
      6369      6371      6374      6397      6370      6369      6368      6399
      6370      6369      6371      6372      6370      6369      6371      6373
      6370      6369      6371      6374      6371      6369      6368      6399
      6371      6374      6376      6377      6371      6374      6376      6378
      6371      6374      6376      6386      6371      6374      6397      6394
      6371      6374      6397      6398      6371      6374      6397      6399
      6372      6371      6374      6375      6372      6371      6374      6376
      6372      6371      6374      6397      6373      6371      6374      6375
      6373      6371      6374      6376      6373      6371      6374      6397
      6374      6376      6378      6379      6374      6376      6378      6380
      6374      6376      6378      6381      6374      6376      6386      6384
      6374      6376      6386      6387      6374      6376      6386      6391
      6374      6397      6394      6391      6374      6397      6394      6395
      6374      6397      6394      6396      6374      6397      6399      6400
      6374      6397      6399      6404      6375      6374      6376      6377
      6375      6374      6376      6378      6375      6374      6376      6386
      6375      6374      6397      6394      6375      6374      6397      6398
      6375      6374      6397      6399      6376      6374      6397      6394
      6376      6374      6397      6398      6376      6374      6397      6399
      6376      6378      6381      6382      6376      6378      6381      6383
      6376      6378      6381      6384      6376      6386      6384      6381
      6376      6386      6384      6385      6376      6386      6384      6410
      6376      6386      6387      6388      6376      6386      6387      6389
      6376      6386      6387      6390      6376      6386      6391      6392
      6376      6386      6391      6393      6376      6386      6391      6394
      6377      6376      6374      6397      6377      6376      6378      6379
      6377      6376      6378      6380      6377      6376      6378      6381
      6377      6376      6386      6384      6377      6376      6386      6387
      6377      6376      6386      6391      6378      6376      6374      6397
      6378      6376      6386      6384      6378      6376      6386      6387
      6378      6376      6386      6391      6378      6381      6384      6385
      6378      6381      6384      6386      6378      6381      6384      6410
      6379      6378      6376      6386      6379      6378      6381      6382
      6379      6378      6381      6383      6379      6378      6381      6384
      6380      6378      6376      6386      6380      6378      6381      6382
      6380      6378      6381      6383      6380      6378      6381      6384
      6381      6378      6376      6386      6381      6384      6386      6387
      6381      6384      6386      6391      6381      6384      6410      6411
      6381      6384      6410      6412      6381      6384      6410      6416
      6382      6381      6384      6385      6382      6381      6384      6386
      6382      6381      6384      6410      6383      6381      6384      6385
      6383      6381      6384      6386      6383      6381      6384      6410
      6384      6386      6387      6388      6384      6386      6387      6389
      6384      6386      6387      6390      6384      6386      6391      6392
      6384      6386      6391      6393      6384      6386      6391      6394
      6384      6410      6412      6413      6384      6410      6412      6414
      6384      6410      6412      6415      6384      6410      6416      6417
      6384      6410      6416      6418      6384      6410      6416      6419
      6385      6384      6386      6387      6385      6384      6386      6391
      6385      6384      6410      6411      6385      6384      6410      6412
      6385      6384      6410      6416      6386      6376      6374      6397
      6386      6384      6410      6411      6386      6384      6410      6412
      6386      6384      6410      6416      6386      6391      6394      6395
      6386      6391      6394      6396      6386      6391      6394      6397
      6387      6386      6384      6410      6387      6386      6391      6392
      6387      6386      6391      6393      6387      6386      6391      6394
      6388      6387      6386      6391      6389      6387      6386      6391
      6390      6387      6386      6391      6391      6386      6384      6410
      6391      6394      6397      6398      6391      6394      6397      6399
      6392      6391      6394      6395      6392      6391      6394      6396
      6392      6391      6394      6397      6393      6391      6394      6395
      6393      6391      6394      6396      6393      6391      6394      6397
      6394      6397      6399      6400      6394      6397      6399      6404
      6395      6394      6397      6398      6395      6394      6397      6399
      6396      6394      6397      6398      6396      6394      6397      6399
      6397      6399      6400      6401      6397      6399      6400      6402
      6397      6399      6400      6403      6397      6399      6404      6405
      6397      6399      6404      6406      6397      6399      6404      6407
      6398      6397      6399      6400      6398      6397      6399      6404
      6399      6404      6407      6408      6399      6404      6407      6409
      6400      6399      6404      6405      6400      6399      6404      6406
      6400      6399      6404      6407      6401      6400      6399      6404
      6402      6400      6399      6404      6403      6400      6399      6404
      6405      6404      6407      6408      6405      6404      6407      6409
      6406      6404      6407      6408      6406      6404      6407      6409
      6410      6416      6419      6420      6410      6416      6419      6421
      6410      6416      6419      6422      6411      6410      6412      6413
      6411      6410      6412      6414      6411      6410      6412      6415
      6411      6410      6416      6417      6411      6410      6416      6418
      6411      6410      6416      6419      6412      6410      6416      6417
      6412      6410      6416      6418      6412      6410      6416      6419
      6413      6412      6410      6416      6414      6412      6410      6416
      6415      6412      6410      6416      6416      6419      6422      6423
      6416      6419      6422      6424      6416      6419      6422      6425
      6417      6416      6419      6420      6417      6416      6419      6421
      6417      6416      6419      6422      6418      6416      6419      6420
      6418      6416      6419      6421      6418      6416      6419      6422
      6419      6422      6425      6426      6419      6422      6425      6427
      6419      6422      6425      6431      6420      6419      6422      6423
      6420      6419      6422      6424      6420      6419      6422      6425
      6421      6419      6422      6423      6421      6419      6422      6424
      6421      6419      6422      6425      6422      6425      6427      6428
      6422      6425      6427      6429      6422      6425      6427      6430
      6422      6425      6431      6432      6422      6425      6431      6433
      6422      6425      6431      6434      6423      6422      6425      6426
      6423      6422      6425      6427      6423      6422      6425      6431
      6424      6422      6425      6426      6424      6422      6425      6427
      6424      6422      6425      6431      6426      6425      6427      6428
      6426      6425      6427      6429      6426      6425      6427      6430
      6426      6425      6431      6432      6426      6425      6431      6433
      6426      6425      6431      6434      6427      6425      6431      6432
      6427      6425      6431      6433      6427      6425      6431      6434
      6428      6427      6425      6431      6429      6427      6425      6431
      6430      6427      6425      6431     19096     19100     19103     19104
     19096     19100     19103     19105     19096     19100     19103     19109
     19097     19096     19100     19101     19097     19096     19100     19102
     19097     19096     19100     19103     19098     19096     19100     19101
     19098     19096     19100     19102     19098     19096     19100     19103
     19099     19096     19100     19101     19099     19096     19100     19102
     19099     19096     19100     19103     19100     19103     19109     19106
     19101     19100     19103     19104     19101     19100     19103     19105
     19101     19100     19103     19109     19102     19100     19103     19104
     19102     19100     19103     19105     19102     19100     19103     19109
     19103     19109     19106     19107     19103     19109     19106     19108
     19103     19109     19106     19110     19104     19103     19109     19106
     19105     19103     19109     19106     19106     19110     19111     19112
     19106     19110     19111     19113     19106     19110     19111     19114
     19107     19106     19110     19111     19108     19106     19110     19111
     19109     19106     19110     19111     19110     19111     19114     19115
     19110     19111     19114     19116     19110     19111     19114     19122
     19111     19114     19116     19117     19111     19114     19122     19123
     19111     19114     19122     19124     19111     19114     19122     19125
     19112     19111     19114     19115     19112     19111     19114     19116
     19112     19111     19114     19122     19113     19111     19114     19115
     19113     19111     19114     19116     19113     19111     19114     19122
     19114     19116     19117     19118     19114     19116     19117     19119
     19114     19122     19125     19126     19115     19114     19116     19117
     19115     19114     19122     19123     19115     19114     19122     19124
     19115     19114     19122     19125     19116     19114     19122     19123
     19116     19114     19122     19124     19116     19114     19122     19125
     19116     19117     19119     19120     19116     19117     19119     19121
     19116     19117     19119     19131     19117     19116     19114     19122
     19117     19119     19131     19132     19117     19119     19131     19133
     19117     19119     19131     19134     19118     19117     19119     19120
     19118     19117     19119     19121     19118     19117     19119     19131
     19119     19131     19134     19135     19119     19131     19134     19136
     19119     19131     19134     19137     19120     19119     19131     19132
     19120     19119     19131     19133     19120     19119     19131     19134
     19121     19119     19131     19132     19121     19119     19131     19133
     19121     19119     19131     19134     19122     19125     19126     19127
     19122     19125     19126     19128     19123     19122     19125     19126
     19124     19122     19125     19126     19125     19126     19128     19129
     19125     19126     19128     19130     19125     19126     19128     19178
     19126     19128     19178     19179     19126     19128     19178     19180
     19126     19128     19178     19181     19127     19126     19128     19129
     19127     19126     19128     19130     19127     19126     19128     19178
     19128     19178     19181     19182     19128     19178     19181     19183
     19128     19178     19181     19184     19129     19128     19178     19179
     19129     19128     19178     19180     19129     19128     19178     19181
     19130     19128     19178     19179     19130     19128     19178     19180
     19130     19128     19178     19181     19131     19134     19137     19138
     19131     19134     19137     19139     19132     19131     19134     19135
     19132     19131     19134     19136     19132     19131     19134     19137
     19133     19131     19134     19135     19133     19131     19134     19136
     19133     19131     19134     19137     19134     19137     19139     19140
     19134     19137     19139     19141     19135     19134     19137     19138
     19135     19134     19137     19139     19136     19134     19137     19138
     19136     19134     19137     19139     19137     19139     19141     19142
     19137     19139     19141     19143     19137     19139     19141     19144
     19138     19137     19139     19140     19138     19137     19139     19141
     19139     19141     19144     19145     19139     19141     19144     19146
     19140     19139     19141     19142     19140     19139     19141     19143
     19140     19139     19141     19144     19141     19144     19146     19147
     19141     19144     19146     19148     19142     19141     19144     19145
     19142     19141     19144     19146     19143     19141     19144     19145
     19143     19141     19144     19146     19144     19146     19148     19149
     19144     19146     19148     19150     19144     19146     19148     19151
     19145     19144     19146     19147     19145     19144     19146     19148
     19146     19148     19151     19152     19146     19148     19151     19153
     19147     19146     19148     19149     19147     19146     19148     19150
     19147     19146     19148     19151     19148     19151     19153     19154
     19148     19151     19153     19155     19149     19148     19151     19152
     19149     19148     19151     19153     19150     19148     19151     19152
     19150     19148     19151     19153     19151     19153     19155     19156
     19151     19153     19155     19157     19151     19153     19155     19158
     19152     19151     19153     19154     19152     19151     19153     19155
     19153     19155     19158     19159     19153     19155     19158     19160
     19154     19153     19155     19156     19154     19153     19155     19157
     19154     19153     19155     19158     19155     19158     19160     19161
     19155     19158     19160     19162     19156     19155     19158     19159
     19156     19155     19158     19160     19157     19155     19158     19159
     19157     19155     19158     19160     19158     19160     19162     19163
     19158     19160     19162     19164     19158     19160     19162     19165
     19159     19158     19160     19161     19159     19158     19160     19162
     19160     19162     19165     19166     19160     19162     19165     19167
     19160     19162     19165     19168     19161     19160     19162     19163
     19161     19160     19162     19164     19161     19160     19162     19165
     19162     19165     19168     19169     19162     19165     19168     19170
     19162     19165     19168     19171     19163     19162     19165     19166
     19163     19162     19165     19167     19163     19162     19165     19168
     19164     19162     19165     19166     19164     19162     19165     19167
     19164     19162     19165     19168     19165     19168     19171     19172
     19165     19168     19171     19173     19165     19168     19171     19174
     19166     19165     19168     19169     19166     19165     19168     19170
     19166     19165     19168     19171     19167     19165     19168     19169
     19167     19165     19168     19170     19167     19165     19168     19171
     19168     19171     19174     19175     19168     19171     19174     19176
     19168     19171     19174     19177     19169     19168     19171     19172
     19169     19168     19171     19173     19169     19168     19171     19174
     19170     19168     19171     19172     19170     19168     19171     19173
     19170     19168     19171     19174     19172     19171     19174     19175
     19172     19171     19174     19176     19172     19171     19174     19177
     19173     19171     19174     19175     19173     19171     19174     19176
     19173     19171     19174     19177     19178     19181     19184     19185
     19178     19181     19184     19186     19178     19181     19184     19187
     19179     19178     19181     19182     19179     19178     19181     19183
     19179     19178     19181     19184     19180     19178     19181     19182
     19180     19178     19181     19183     19180     19178     19181     19184
     19181     19184     19187     19188     19181     19184     19187     19189
     19181     19184     19187     19190     19182     19181     19184     19185
     19182     19181     19184     19186     19182     19181     19184     19187
     19183     19181     19184     19185     19183     19181     19184     19186
     19183     19181     19184     19187     19184     19187     19190     19191
     19184     19187     19190     19192     19184     19187     19190     19193
     19185     19184     19187     19188     19185     19184     19187     19189
     19185     19184     19187     19190     19186     19184     19187     19188
     19186     19184     19187     19189     19186     19184     19187     19190
     19187     19190     19193     19194     19187     19190     19193     19195
     19187     19190     19193     19196     19188     19187     19190     19191
     19188     19187     19190     19192     19188     19187     19190     19193
     19189     19187     19190     19191     19189     19187     19190     19192
     19189     19187     19190     19193     19190     19193     19196     19197
     19190     19193     19196     19198     19190     19193     19196     19199
     19191     19190     19193     19194     19191     19190     19193     19195
     19191     19190     19193     19196     19192     19190     19193     19194
     19192     19190     19193     19195     19192     19190     19193     19196
     19193     19196     19199     19200     19193     19196     19199     19201
     19193     19196     19199     19202     19194     19193     19196     19197
     19194     19193     19196     19198     19194     19193     19196     19199
     19195     19193     19196     19197     19195     19193     19196     19198
     19195     19193     19196     19199     19196     19199     19202     19203
     19196     19199     19202     19204     19196     19199     19202     19205
     19197     19196     19199     19200     19197     19196     19199     19201
     19197     19196     19199     19202     19198     19196     19199     19200
     19198     19196     19199     19201     19198     19196     19199     19202
     19199     19202     19205     19206     19199     19202     19205     19207
     19199     19202     19205     19208     19200     19199     19202     19203
     19200     19199     19202     19204     19200     19199     19202     19205
     19201     19199     19202     19203     19201     19199     19202     19204
     19201     19199     19202     19205     19202     19205     19208     19209
     19202     19205     19208     19210     19202     19205     19208     19211
     19203     19202     19205     19206     19203     19202     19205     19207
     19203     19202     19205     19208     19204     19202     19205     19206
     19204     19202     19205     19207     19204     19202     19205     19208
     19205     19208     19211     19212     19205     19208     19211     19213
     19205     19208     19211     19214     19206     19205     19208     19209
     19206     19205     19208     19210     19206     19205     19208     19211
     19207     19205     19208     19209     19207     19205     19208     19210
     19207     19205     19208     19211     19208     19211     19214     19215
     19208     19211     19214     19216     19208     19211     19214     19217
     19209     19208     19211     19212     19209     19208     19211     19213
     19209     19208     19211     19214     19210     19208     19211     19212
     19210     19208     19211     19213     19210     19208     19211     19214
     19211     19214     19217     19218     19211     19214     19217     19219
     19211     19214     19217     19220     19212     19211     19214     19215
     19212     19211     19214     19216     19212     19211     19214     19217
     19213     19211     19214     19215     19213     19211     19214     19216
     19213     19211     19214     19217     19214     19217     19220     19221
     19214     19217     19220     19222     19214     19217     19220     19223
     19215     19214     19217     19218     19215     19214     19217     19219
     19215     19214     19217     19220     19216     19214     19217     19218
     19216     19214     19217     19219     19216     19214     19217     19220
     19217     19220     19223     19224     19217     19220     19223     19225
     19217     19220     19223     19226     19218     19217     19220     19221
     19218     19217     19220     19222     19218     19217     19220     19223
     19219     19217     19220     19221     19219     19217     19220     19222
     19219     19217     19220     19223     19221     19220     19223     19224
     19221     19220     19223     19225     19221     19220     19223     19226
     19222     19220     19223     19224     19222     19220     19223     19225
     19222     19220     19223     19226     21007     21020     21023     21024
     21007     21020     21023     21025     21007     21020     21023     21029
     21008     21007     21012     21013     21008     21007     21012     21014
     21008     21007     21012     21015     21008     21007     21016     21017
     21008     21007     21016     21018     21008     21007     21016     21019
     21008     21007     21020     21021     21008     21007     21020     21022
     21008     21007     21020     21023     21009     21008     21007     21012
     21009     21008     21007     21016     21009     21008     21007     21020
     21010     21008     21007     21012     21010     21008     21007     21016
     21010     21008     21007     21020     21011     21008     21007     21012
     21011     21008     21007     21016     21011     21008     21007     21020
     21012     21007     21016     21017     21012     21007     21016     21018
     21012     21007     21016     21019     21012     21007     21020     21021
     21012     21007     21020     21022     21012     21007     21020     21023
     21013     21012     21007     21016     21013     21012     21007     21020
     21014     21012     21007     21016     21014     21012     21007     21020
     21015     21012     21007     21016     21015     21012     21007     21020
     21016     21007     21020     21021     21016     21007     21020     21022
     21016     21007     21020     21023     21017     21016     21007     21020
     21018     21016     21007     21020     21019     21016     21007     21020
     21020     21023     21029     21026     21021     21020     21023     21024
     21021     21020     21023     21025     21021     21020     21023     21029
     21022     21020     21023     21024     21022     21020     21023     21025
     21022     21020     21023     21029     21023     21029     21026     21027
     21023     21029     21026     21028     21023     21029     21026     21030
     21024     21023     21029     21026     21025     21023     21029     21026
     21026     21030     21031     21032     21026     21030     21031     21033
     21026     21030     21031     21034     21027     21026     21030     21031
     21028     21026     21030     21031     21029     21026     21030     21031
     21030     21031     21034     21035     21030     21031     21034     21036
     21030     21031     21034     21042     21031     21034     21036     21037
     21031     21034     21042     21043     21031     21034     21042     21044
     21031     21034     21042     21045     21032     21031     21034     21035
     21032     21031     21034     21036     21032     21031     21034     21042
     21033     21031     21034     21035     21033     21031     21034     21036
     21033     21031     21034     21042     21034     21036     21037     21038
     21034     21036     21037     21039     21034     21042     21045     21046
     21035     21034     21036     21037     21035     21034     21042     21043
     21035     21034     21042     21044     21035     21034     21042     21045
     21036     21034     21042     21043     21036     21034     21042     21044
     21036     21034     21042     21045     21036     21037     21039     21040
     21036     21037     21039     21041     21036     21037     21039     21051
     21037     21036     21034     21042     21037     21039     21051     21052
     21037     21039     21051     21053     21037     21039     21051     21054
     21038     21037     21039     21040     21038     21037     21039     21041
     21038     21037     21039     21051     21039     21051     21054     21055
     21039     21051     21054     21056     21039     21051     21054     21057
     21040     21039     21051     21052     21040     21039     21051     21053
     21040     21039     21051     21054     21041     21039     21051     21052
     21041     21039     21051     21053     21041     21039     21051     21054
     21042     21045     21046     21047     21042     21045     21046     21048
     21043     21042     21045     21046     21044     21042     21045     21046
     21045     21046     21048     21049     21045     21046     21048     21050
     21045     21046     21048     21096     21046     21048     21096     21097
     21046     21048     21096     21098     21046     21048     21096     21099
     21047     21046     21048     21049     21047     21046     21048     21050
     21047     21046     21048     21096     21048     21096     21099     21100
     21048     21096     21099     21101     21048     21096     21099     21102
     21049     21048     21096     21097     21049     21048     21096     21098
     21049     21048     21096     21099     21050     21048     21096     21097
     21050     21048     21096     21098     21050     21048     21096     21099
     21051     21054     21057     21058     21051     21054     21057     21059
     21051     21054     21057     21060     21052     21051     21054     21055
     21052     21051     21054     21056     21052     21051     21054     21057
     21053     21051     21054     21055     21053     21051     21054     21056
     21053     21051     21054     21057     21054     21057     21060     21061
     21054     21057     21060     21062     21054     21057     21060     21063
     21055     21054     21057     21058     21055     21054     21057     21059
     21055     21054     21057     21060     21056     21054     21057     21058
     21056     21054     21057     21059     21056     21054     21057     21060
     21057     21060     21063     21064     21057     21060     21063     21065
     21057     21060     21063     21066     21058     21057     21060     21061
     21058     21057     21060     21062     21058     21057     21060     21063
     21059     21057     21060     21061     21059     21057     21060     21062
     21059     21057     21060     21063     21060     21063     21066     21067
     21060     21063     21066     21068     21060     21063     21066     21069
     21061     21060     21063     21064     21061     21060     21063     21065
     21061     21060     21063     21066     21062     21060     21063     21064
     21062     21060     21063     21065     21062     21060     21063     21066
     21063     21066     21069     21070     21063     21066     21069     21071
     21064     21063     21066     21067     21064     21063     21066     21068
     21064     21063     21066     21069     21065     21063     21066     21067
     21065     21063     21066     21068     21065     21063     21066     21069
     21066     21069     21071     21072     21066     21069     21071     21073
     21067     21066     21069     21070     21067     21066     21069     21071
     21068     21066     21069     21070     21068     21066     21069     21071
     21069     21071     21073     21074     21069     21071     21073     21075
     21069     21071     21073     21076     21070     21069     21071     21072
     21070     21069     21071     21073     21071     21073     21076     21077
     21071     21073     21076     21078     21072     21071     21073     21074
     21072     21071     21073     21075     21072     21071     21073     21076
     21073     21076     21078     21079     21073     21076     21078     21080
     21074     21073     21076     21077     21074     21073     21076     21078
     21075     21073     21076     21077     21075     21073     21076     21078
     21076     21078     21080     21081     21076     21078     21080     21082
     21076     21078     21080     21083     21077     21076     21078     21079
     21077     21076     21078     21080     21078     21080     21083     21084
     21078     21080     21083     21085     21078     21080     21083     21086
     21079     21078     21080     21081     21079     21078     21080     21082
     21079     21078     21080     21083     21080     21083     21086     21087
     21080     21083     21086     21088     21080     21083     21086     21089
     21081     21080     21083     21084     21081     21080     21083     21085
     21081     21080     21083     21086     21082     21080     21083     21084
     21082     21080     21083     21085     21082     21080     21083     21086
     21083     21086     21089     21090     21083     21086     21089     21091
     21083     21086     21089     21092     21084     21083     21086     21087
     21084     21083     21086     21088     21084     21083     21086     21089
     21085     21083     21086     21087     21085     21083     21086     21088
     21085     21083     21086     21089     21086     21089     21092     21093
     21086     21089     21092     21094     21086     21089     21092     21095
     21087     21086     21089     21090     21087     21086     21089     21091
     21087     21086     21089     21092     21088     21086     21089     21090
     21088     21086     21089     21091     21088     21086     21089     21092
     21090     21089     21092     21093     21090     21089     21092     21094
     21090     21089     21092     21095     21091     21089     21092     21093
     21091     21089     21092     21094     21091     21089     21092     21095
     21096     21099     21102     21103     21096     21099     21102     21104
     21096     21099     21102     21105     21097     21096     21099     21100
     21097     21096     21099     21101     21097     21096     21099     21102
     21098     21096     21099     21100     21098     21096     21099     21101
     21098     21096     21099     21102     21099     21102     21105     21106
     21099     21102     21105     21107     21099     21102     21105     21108
     21100     21099     21102     21103     21100     21099     21102     21104
     21100     21099     21102     21105     21101     21099     21102     21103
     21101     21099     21102     21104     21101     21099     21102     21105
     21102     21105     21108     21109     21102     21105     21108     21110
     21102     21105     21108     21111     21103     21102     21105     21106
     21103     21102     21105     21107     21103     21102     21105     21108
     21104     21102     21105     21106     21104     21102     21105     21107
     21104     21102     21105     21108     21105     21108     21111     21112
     21105     21108     21111     21113     21105     21108     21111     21114
     21106     21105     21108     21109     21106     21105     21108     21110
     21106     21105     21108     21111     21107     21105     21108     21109
     21107     21105     21108     21110     21107     21105     21108     21111
     21108     21111     21114     21115     21108     21111     21114     21116
     21108     21111     21114     21117     21109     21108     21111     21112
     21109     21108     21111     21113     21109     21108     21111     21114
     21110     21108     21111     21112     21110     21108     21111     21113
     21110     21108     21111     21114     21111     21114     21117     21118
     21111     21114     21117     21119     21111     21114     21117     21120
     21112     21111     21114     21115     21112     21111     21114     21116
     21112     21111     21114     21117     21113     21111     21114     21115
     21113     21111     21114     21116     21113     21111     21114     21117
     21114     21117     21120     21121     21114     21117     21120     21122
     21114     21117     21120     21123     21115     21114     21117     21118
     21115     21114     21117     21119     21115     21114     21117     21120
     21116     21114     21117     21118     21116     21114     21117     21119
     21116     21114     21117     21120     21117     21120     21123     21124
     21117     21120     21123     21125     21117     21120     21123     21126
     21118     21117     21120     21121     21118     21117     21120     21122
     21118     21117     21120     21123     21119     21117     21120     21121
     21119     21117     21120     21122     21119     21117     21120     21123
     21120     21123     21126     21127     21120     21123     21126     21128
     21120     21123     21126     21129     21121     21120     21123     21124
     21121     21120     21123     21125     21121     21120     21123     21126
     21122     21120     21123     21124     21122     21120     21123     21125
     21122     21120     21123     21126     21123     21126     21129     21130
     21123     21126     21129     21131     21123     21126     21129     21132
     21124     21123     21126     21127     21124     21123     21126     21128
     21124     21123     21126     21129     21125     21123     21126     21127
     21125     21123     21126     21128     21125     21123     21126     21129
     21126     21129     21132     21133     21126     21129     21132     21134
     21126     21129     21132     21135     21127     21126     21129     21130
     21127     21126     21129     21131     21127     21126     21129     21132
     21128     21126     21129     21130     21128     21126     21129     21131
     21128     21126     21129     21132     21129     21132     21135     21136
     21129     21132     21135     21137     21129     21132     21135     21138
     21130     21129     21132     21133     21130     21129     21132     21134
     21130     21129     21132     21135     21131     21129     21132     21133
     21131     21129     21132     21134     21131     21129     21132     21135
     21132     21135     21138     21139     21132     21135     21138     21140
     21132     21135     21138     21141     21133     21132     21135     21136
     21133     21132     21135     21137     21133     21132     21135     21138
     21134     21132     21135     21136     21134     21132     21135     21137
     21134     21132     21135     21138     21135     21138     21141     21142
     21135     21138     21141     21143     21135     21138     21141     21144
     21136     21135     21138     21139     21136     21135     21138     21140
     21136     21135     21138     21141     21137     21135     21138     21139
     21137     21135     21138     21140     21137     21135     21138     21141
     21139     21138     21141     21142     21139     21138     21141     21143
     21139     21138     21141     21144     21140     21138     21141     21142
     21140     21138     21141     21143     21140     21138     21141     21144
      6435      6439      6442      6443      6435      6439      6442      6473
      6435      6481      6478      6473      6435      6481      6478      6479
      6435      6481      6478      6480      6436      6435      6437      6438
      6436      6435      6439      6440      6436      6435      6439      6441
      6436      6435      6439      6442      6436      6435      6481      6478
      6436      6435      6481      6482      6436      6435      6481      6483
      6437      6435      6439      6440      6437      6435      6439      6441
      6437      6435      6439      6442      6437      6435      6481      6478
      6437      6435      6481      6482      6437      6435      6481      6483
      6438      6437      6435      6439      6438      6437      6435      6481
      6439      6435      6481      6478      6439      6435      6481      6482
      6439      6435      6481      6483      6439      6442      6443      6444
      6439      6442      6443      6445      6439      6442      6473      6471
      6439      6442      6473      6474      6439      6442      6473      6478
      6440      6439      6435      6481      6440      6439      6442      6443
      6440      6439      6442      6473      6441      6439      6435      6481
      6441      6439      6442      6443      6441      6439      6442      6473
      6442      6439      6435      6481      6442      6443      6445      6446
      6442      6443      6445      6447      6442      6443      6445      6448
      6442      6473      6471      6448      6442      6473      6471      6468
      6442      6473      6471      6472      6442      6473      6474      6475
      6442      6473      6474      6476      6442      6473      6474      6477
      6442      6473      6478      6479      6442      6473      6478      6480
      6442      6473      6478      6481      6443      6442      6473      6471
      6443      6442      6473      6474      6443      6442      6473      6478
      6443      6445      6448      6449      6443      6445      6448      6450
      6443      6445      6448      6471      6444      6443      6442      6473
      6444      6443      6445      6446      6444      6443      6445      6447
      6444      6443      6445      6448      6445      6443      6442      6473
      6445      6448      6450      6451      6445      6448      6450      6452
      6445      6448      6450      6460      6445      6448      6471      6468
      6445      6448      6471      6472      6445      6448      6471      6473
      6446      6445      6448      6449      6446      6445      6448      6450
      6446      6445      6448      6471      6447      6445      6448      6449
      6447      6445      6448      6450      6447      6445      6448      6471
      6448      6450      6452      6453      6448      6450      6452      6454
      6448      6450      6452      6455      6448      6450      6460      6458
      6448      6450      6460      6461      6448      6450      6460      6465
      6448      6471      6468      6465      6448      6471      6468      6469
      6448      6471      6468      6470      6448      6471      6473      6474
      6448      6471      6473      6478      6449      6448      6450      6451
      6449      6448      6450      6452      6449      6448      6450      6460
      6449      6448      6471      6468      6449      6448      6471      6472
      6449      6448      6471      6473      6450      6448      6471      6468
      6450      6448      6471      6472      6450      6448      6471      6473
      6450      6452      6455      6456      6450      6452      6455      6457
      6450      6452      6455      6458      6450      6460      6458      6455
      6450      6460      6458      6459      6450      6460      6458      6484
      6450      6460      6461      6462      6450      6460      6461      6463
      6450      6460      6461      6464      6450      6460      6465      6466
      6450      6460      6465      6467      6450      6460      6465      6468
      6451      6450      6448      6471      6451      6450      6452      6453
      6451      6450      6452      6454      6451      6450      6452      6455
      6451      6450      6460      6458      6451      6450      6460      6461
      6451      6450      6460      6465      6452      6450      6448      6471
      6452      6450      6460      6458      6452      6450      6460      6461
      6452      6450      6460      6465      6452      6455      6458      6459
      6452      6455      6458      6460      6452      6455      6458      6484
      6453      6452      6450      6460      6453      6452      6455      6456
      6453      6452      6455      6457      6453      6452      6455      6458
      6454      6452      6450      6460      6454      6452      6455      6456
      6454      6452      6455      6457      6454      6452      6455      6458
      6455      6452      6450      6460      6455      6458      6460      6461
      6455      6458      6460      6465      6455      6458      6484      6485
      6455      6458      6484      6486      6455      6458      6484      6490
      6456      6455      6458      6459      6456      6455      6458      6460
      6456      6455      6458      6484      6457      6455      6458      6459
      6457      6455      6458      6460      6457      6455      6458      6484
      6458      6460      6461      6462      6458      6460      6461      6463
      6458      6460      6461      6464      6458      6460      6465      6466
      6458      6460      6465      6467      6458      6460      6465      6468
      6458      6484      6486      6487      6458      6484      6486      6488
      6458      6484      6486      6489      6458      6484      6490      6491
      6458      6484      6490      6492      6458      6484      6490      6493
      6459      6458      6460      6461      6459      6458      6460      6465
      6459      6458      6484      6485      6459      6458      6484      6486
      6459      6458      6484      6490      6460      6450      6448      6471
      6460      6458      6484      6485      6460      6458      6484      6486
      6460      6458      6484      6490      6460      6465      6468      6469
      6460      6465      6468      6470      6460      6465      6468      6471
      6461      6460      6458      6484      6461      6460      6465      6466
      6461      6460      6465      6467      6461      6460      6465      6468
      6462      6461      6460      6465      6463      6461      6460      6465
      6464      6461      6460      6465      6465      6460      6458      6484
      6465      6468      6471      6472      6465      6468      6471      6473
      6466      6465      6468      6469      6466      6465      6468      6470
      6466      6465      6468      6471      6467      6465      6468      6469
      6467      6465      6468      6470      6467      6465      6468      6471
      6468      6471      6473      6474      6468      6471      6473      6478
      6469      6468      6471      6472      6469      6468      6471      6473
      6470      6468      6471      6472      6470      6468      6471      6473
      6471      6473      6474      6475      6471      6473      6474      6476
      6471      6473      6474      6477      6471      6473      6478      6479
      6471      6473      6478      6480      6471      6473      6478      6481
      6472      6471      6473      6474      6472      6471      6473      6478
      6473      6478      6481      6482      6473      6478      6481      6483
      6474      6473      6478      6479      6474      6473      6478      6480
      6474      6473      6478      6481      6475      6474      6473      6478
      6476      6474      6473      6478      6477      6474      6473      6478
      6479      6478      6481      6482      6479      6478      6481      6483
      6480      6478      6481      6482      6480      6478      6481      6483
      6484      6490      6493      6494      6484      6490      6493      6495
      6484      6490      6493      6496      6485      6484      6486      6487
      6485      6484      6486      6488      6485      6484      6486      6489
      6485      6484      6490      6491      6485      6484      6490      6492
      6485      6484      6490      6493      6486      6484      6490      6491
      6486      6484      6490      6492      6486      6484      6490      6493
      6487      6486      6484      6490      6488      6486      6484      6490
      6489      6486      6484      6490      6490      6493      6496      6497
      6490      6493      6496      6498      6490      6493      6496      6499
      6491      6490      6493      6494      6491      6490      6493      6495
      6491      6490      6493      6496      6492      6490      6493      6494
      6492      6490      6493      6495      6492      6490      6493      6496
      6493      6496      6499      6500      6493      6496      6499      6501
      6493      6496      6499      6505      6494      6493      6496      6497
      6494      6493      6496      6498      6494      6493      6496      6499
      6495      6493      6496      6497      6495      6493      6496      6498
      6495      6493      6496      6499      6496      6499      6501      6502
      6496      6499      6501      6503      6496      6499      6501      6504
      6496      6499      6505      6506      6496      6499      6505      6507
      6496      6499      6505      6508      6497      6496      6499      6500
      6497      6496      6499      6501      6497      6496      6499      6505
      6498      6496      6499      6500      6498      6496      6499      6501
      6498      6496      6499      6505      6500      6499      6501      6502
      6500      6499      6501      6503      6500      6499      6501      6504
      6500      6499      6505      6506      6500      6499      6505      6507
      6500      6499      6505      6508      6501      6499      6505      6506
      6501      6499      6505      6507      6501      6499      6505      6508
      6502      6501      6499      6505      6503      6501      6499      6505
      6504      6501      6499      6505     19227     19231     19234     19235
     19227     19231     19234     19236     19227     19231     19234     19240
     19228     19227     19231     19232     19228     19227     19231     19233
     19228     19227     19231     19234     19229     19227     19231     19232
     19229     19227     19231     19233     19229     19227     19231     19234
     19230     19227     19231     19232     19230     19227     19231     19233
     19230     19227     19231     19234     19231     19234     19240     19237
     19232     19231     19234     19235     19232     19231     19234     19236
     19232     19231     19234     19240     19233     19231     19234     19235
     19233     19231     19234     19236     19233     19231     19234     19240
     19234     19240     19237     19238     19234     19240     19237     19239
     19234     19240     19237     19241     19235     19234     19240     19237
     19236     19234     19240     19237     19237     19241     19242     19243
     19237     19241     19242     19244     19237     19241     19242     19245
     19238     19237     19241     19242     19239     19237     19241     19242
     19240     19237     19241     19242     19241     19242     19245     19246
     19241     19242     19245     19247     19241     19242     19245     19253
     19242     19245     19247     19248     19242     19245     19253     19254
     19242     19245     19253     19255     19242     19245     19253     19256
     19243     19242     19245     19246     19243     19242     19245     19247
     19243     19242     19245     19253     19244     19242     19245     19246
     19244     19242     19245     19247     19244     19242     19245     19253
     19245     19247     19248     19249     19245     19247     19248     19250
     19245     19253     19256     19257     19246     19245     19247     19248
     19246     19245     19253     19254     19246     19245     19253     19255
     19246     19245     19253     19256     19247     19245     19253     19254
     19247     19245     19253     19255     19247     19245     19253     19256
     19247     19248     19250     19251     19247     19248     19250     19252
     19247     19248     19250     19262     19248     19247     19245     19253
     19248     19250     19262     19263     19248     19250     19262     19264
     19248     19250     19262     19265     19249     19248     19250     19251
     19249     19248     19250     19252     19249     19248     19250     19262
     19250     19262     19265     19266     19250     19262     19265     19267
     19250     19262     19265     19268     19251     19250     19262     19263
     19251     19250     19262     19264     19251     19250     19262     19265
     19252     19250     19262     19263     19252     19250     19262     19264
     19252     19250     19262     19265     19253     19256     19257     19258
     19253     19256     19257     19259     19254     19253     19256     19257
     19255     19253     19256     19257     19256     19257     19259     19260
     19256     19257     19259     19261     19256     19257     19259     19309
     19257     19259     19309     19310     19257     19259     19309     19311
     19257     19259     19309     19312     19258     19257     19259     19260
     19258     19257     19259     19261     19258     19257     19259     19309
     19259     19309     19312     19313     19259     19309     19312     19314
     19259     19309     19312     19315     19260     19259     19309     19310
     19260     19259     19309     19311     19260     19259     19309     19312
     19261     19259     19309     19310     19261     19259     19309     19311
     19261     19259     19309     19312     19262     19265     19268     19269
     19262     19265     19268     19270     19263     19262     19265     19266
     19263     19262     19265     19267     19263     19262     19265     19268
     19264     19262     19265     19266     19264     19262     19265     19267
     19264     19262     19265     19268     19265     19268     19270     19271
     19265     19268     19270     19272     19266     19265     19268     19269
     19266     19265     19268     19270     19267     19265     19268     19269
     19267     19265     19268     19270     19268     19270     19272     19273
     19268     19270     19272     19274     19268     19270     19272     19275
     19269     19268     19270     19271     19269     19268     19270     19272
     19270     19272     19275     19276     19270     19272     19275     19277
     19271     19270     19272     19273     19271     19270     19272     19274
     19271     19270     19272     19275     19272     19275     19277     19278
     19272     19275     19277     19279     19273     19272     19275     19276
     19273     19272     19275     19277     19274     19272     19275     19276
     19274     19272     19275     19277     19275     19277     19279     19280
     19275     19277     19279     19281     19275     19277     19279     19282
     19276     19275     19277     19278     19276     19275     19277     19279
     19277     19279     19282     19283     19277     19279     19282     19284
     19278     19277     19279     19280     19278     19277     19279     19281
     19278     19277     19279     19282     19279     19282     19284     19285
     19279     19282     19284     19286     19280     19279     19282     19283
     19280     19279     19282     19284     19281     19279     19282     19283
     19281     19279     19282     19284     19282     19284     19286     19287
     19282     19284     19286     19288     19282     19284     19286     19289
     19283     19282     19284     19285     19283     19282     19284     19286
     19284     19286     19289     19290     19284     19286     19289     19291
     19285     19284     19286     19287     19285     19284     19286     19288
     19285     19284     19286     19289     19286     19289     19291     19292
     19286     19289     19291     19293     19287     19286     19289     19290
     19287     19286     19289     19291     19288     19286     19289     19290
     19288     19286     19289     19291     19289     19291     19293     19294
     19289     19291     19293     19295     19289     19291     19293     19296
     19290     19289     19291     19292     19290     19289     19291     19293
     19291     19293     19296     19297     19291     19293     19296     19298
     19291     19293     19296     19299     19292     19291     19293     19294
     19292     19291     19293     19295     19292     19291     19293     19296
     19293     19296     19299     19300     19293     19296     19299     19301
     19293     19296     19299     19302     19294     19293     19296     19297
     19294     19293     19296     19298     19294     19293     19296     19299
     19295     19293     19296     19297     19295     19293     19296     19298
     19295     19293     19296     19299     19296     19299     19302     19303
     19296     19299     19302     19304     19296     19299     19302     19305
     19297     19296     19299     19300     19297     19296     19299     19301
     19297     19296     19299     19302     19298     19296     19299     19300
     19298     19296     19299     19301     19298     19296     19299     19302
     19299     19302     19305     19306     19299     19302     19305     19307
     19299     19302     19305     19308     19300     19299     19302     19303
     19300     19299     19302     19304     19300     19299     19302     19305
     19301     19299     19302     19303     19301     19299     19302     19304
     19301     19299     19302     19305     19303     19302     19305     19306
     19303     19302     19305     19307     19303     19302     19305     19308
     19304     19302     19305     19306     19304     19302     19305     19307
     19304     19302     19305     19308     19309     19312     19315     19316
     19309     19312     19315     19317     19309     19312     19315     19318
     19310     19309     19312     19313     19310     19309     19312     19314
     19310     19309     19312     19315     19311     19309     19312     19313
     19311     19309     19312     19314     19311     19309     19312     19315
     19312     19315     19318     19319     19312     19315     19318     19320
     19312     19315     19318     19321     19313     19312     19315     19316
     19313     19312     19315     19317     19313     19312     19315     19318
     19314     19312     19315     19316     19314     19312     19315     19317
     19314     19312     19315     19318     19315     19318     19321     19322
     19315     19318     19321     19323     19315     19318     19321     19324
     19316     19315     19318     19319     19316     19315     19318     19320
     19316     19315     19318     19321     19317     19315     19318     19319
     19317     19315     19318     19320     19317     19315     19318     19321
     19318     19321     19324     19325     19318     19321     19324     19326
     19318     19321     19324     19327     19319     19318     19321     19322
     19319     19318     19321     19323     19319     19318     19321     19324
     19320     19318     19321     19322     19320     19318     19321     19323
     19320     19318     19321     19324     19321     19324     19327     19328
     19321     19324     19327     19329     19321     19324     19327     19330
     19322     19321     19324     19325     19322     19321     19324     19326
     19322     19321     19324     19327     19323     19321     19324     19325
     19323     19321     19324     19326     19323     19321     19324     19327
     19324     19327     19330     19331     19324     19327     19330     19332
     19324     19327     19330     19333     19325     19324     19327     19328
     19325     19324     19327     19329     19325     19324     19327     19330
     19326     19324     19327     19328     19326     19324     19327     19329
     19326     19324     19327     19330     19327     19330     19333     19334
     19327     19330     19333     19335     19327     19330     19333     19336
     19328     19327     19330     19331     19328     19327     19330     19332
     19328     19327     19330     19333     19329     19327     19330     19331
     19329     19327     19330     19332     19329     19327     19330     19333
     19330     19333     19336     19337     19330     19333     19336     19338
     19330     19333     19336     19339     19331     19330     19333     19334
     19331     19330     19333     19335     19331     19330     19333     19336
     19332     19330     19333     19334     19332     19330     19333     19335
     19332     19330     19333     19336     19333     19336     19339     19340
     19333     19336     19339     19341     19333     19336     19339     19342
     19334     19333     19336     19337     19334     19333     19336     19338
     19334     19333     19336     19339     19335     19333     19336     19337
     19335     19333     19336     19338     19335     19333     19336     19339
     19336     19339     19342     19343     19336     19339     19342     19344
     19336     19339     19342     19345     19337     19336     19339     19340
     19337     19336     19339     19341     19337     19336     19339     19342
     19338     19336     19339     19340     19338     19336     19339     19341
     19338     19336     19339     19342     19339     19342     19345     19346
     19339     19342     19345     19347     19339     19342     19345     19348
     19340     19339     19342     19343     19340     19339     19342     19344
     19340     19339     19342     19345     19341     19339     19342     19343
     19341     19339     19342     19344     19341     19339     19342     19345
     19342     19345     19348     19349     19342     19345     19348     19350
     19342     19345     19348     19351     19343     19342     19345     19346
     19343     19342     19345     19347     19343     19342     19345     19348
     19344     19342     19345     19346     19344     19342     19345     19347
     19344     19342     19345     19348     19345     19348     19351     19352
     19345     19348     19351     19353     19345     19348     19351     19354
     19346     19345     19348     19349     19346     19345     19348     19350
     19346     19345     19348     19351     19347     19345     19348     19349
     19347     19345     19348     19350     19347     19345     19348     19351
     19348     19351     19354     19355     19348     19351     19354     19356
     19348     19351     19354     19357     19349     19348     19351     19352
     19349     19348     19351     19353     19349     19348     19351     19354
     19350     19348     19351     19352     19350     19348     19351     19353
     19350     19348     19351     19354     19352     19351     19354     19355
     19352     19351     19354     19356     19352     19351     19354     19357
     19353     19351     19354     19355     19353     19351     19354     19356
     19353     19351     19354     19357      8115      8119      8122      8123
      8115      8119      8122      8124      8115      8119      8122      8128
      8116      8115      8119      8120      8116      8115      8119      8121
      8116      8115      8119      8122      8117      8115      8119      8120
      8117      8115      8119      8121      8117      8115      8119      8122
      8118      8115      8119      8120      8118      8115      8119      8121
      8118      8115      8119      8122      8119      8122      8128      8125
      8120      8119      8122      8123      8120      8119      8122      8124
      8120      8119      8122      8128      8121      8119      8122      8123
      8121      8119      8122      8124      8121      8119      8122      8128
      8122      8128      8125      8126      8122      8128      8125      8127
      8122      8128      8125      8129      8123      8122      8128      8125
      8124      8122      8128      8125      8125      8129      8130      8131
      8125      8129      8130      8132      8125      8129      8130      8133
      8126      8125      8129      8130      8127      8125      8129      8130
      8128      8125      8129      8130      8129      8130      8133      8134
      8129      8130      8133      8135      8129      8130      8133      8141
      8130      8133      8135      8136      8130      8133      8141      8142
      8130      8133      8141      8143      8130      8133      8141      8144
      8131      8130      8133      8134      8131      8130      8133      8135
      8131      8130      8133      8141      8132      8130      8133      8134
      8132      8130      8133      8135      8132      8130      8133      8141
      8133      8135      8136      8137      8133      8135      8136      8138
      8133      8141      8144      8145      8134      8133      8135      8136
      8134      8133      8141      8142      8134      8133      8141      8143
      8134      8133      8141      8144      8135      8133      8141      8142
      8135      8133      8141      8143      8135      8133      8141      8144
      8135      8136      8138      8139      8135      8136      8138      8140
      8135      8136      8138      8150      8136      8135      8133      8141
      8136      8138      8150      8151      8136      8138      8150      8152
      8136      8138      8150      8153      8137      8136      8138      8139
      8137      8136      8138      8140      8137      8136      8138      8150
      8138      8150      8153      8154      8138      8150      8153      8155
      8138      8150      8153      8156      8139      8138      8150      8151
      8139      8138      8150      8152      8139      8138      8150      8153
      8140      8138      8150      8151      8140      8138      8150      8152
      8140      8138      8150      8153      8141      8144      8145      8146
      8141      8144      8145      8147      8142      8141      8144      8145
      8143      8141      8144      8145      8144      8145      8147      8148
      8144      8145      8147      8149      8144      8145      8147      8197
      8145      8147      8197      8198      8145      8147      8197      8199
      8145      8147      8197      8200      8146      8145      8147      8148
      8146      8145      8147      8149      8146      8145      8147      8197
      8147      8197      8200      8201      8147      8197      8200      8202
      8147      8197      8200      8203      8148      8147      8197      8198
      8148      8147      8197      8199      8148      8147      8197      8200
      8149      8147      8197      8198      8149      8147      8197      8199
      8149      8147      8197      8200      8150      8153      8156      8157
      8150      8153      8156      8158      8150      8153      8156      8159
      8151      8150      8153      8154      8151      8150      8153      8155
      8151      8150      8153      8156      8152      8150      8153      8154
      8152      8150      8153      8155      8152      8150      8153      8156
      8153      8156      8159      8160      8153      8156      8159      8161
      8153      8156      8159      8162      8154      8153      8156      8157
      8154      8153      8156      8158      8154      8153      8156      8159
      8155      8153      8156      8157      8155      8153      8156      8158
      8155      8153      8156      8159      8156      8159      8162      8163
      8156      8159      8162      8164      8156      8159      8162      8165
      8157      8156      8159      8160      8157      8156      8159      8161
      8157      8156      8159      8162      8158      8156      8159      8160
      8158      8156      8159      8161      8158      8156      8159      8162
      8159      8162      8165      8166      8159      8162      8165      8167
      8159      8162      8165      8168      8160      8159      8162      8163
      8160      8159      8162      8164      8160      8159      8162      8165
      8161      8159      8162      8163      8161      8159      8162      8164
      8161      8159      8162      8165      8162      8165      8168      8169
      8162      8165      8168      8170      8163      8162      8165      8166
      8163      8162      8165      8167      8163      8162      8165      8168
      8164      8162      8165      8166      8164      8162      8165      8167
      8164      8162      8165      8168      8165      8168      8170      8171
      8165      8168      8170      8172      8166      8165      8168      8169
      8166      8165      8168      8170      8167      8165      8168      8169
      8167      8165      8168      8170      8168      8170      8172      8173
      8168      8170      8172      8174      8168      8170      8172      8175
      8169      8168      8170      8171      8169      8168      8170      8172
      8170      8172      8175      8176      8170      8172      8175      8177
      8170      8172      8175      8178      8171      8170      8172      8173
      8171      8170      8172      8174      8171      8170      8172      8175
      8172      8175      8178      8179      8172      8175      8178      8180
      8172      8175      8178      8181      8173      8172      8175      8176
      8173      8172      8175      8177      8173      8172      8175      8178
      8174      8172      8175      8176      8174      8172      8175      8177
      8174      8172      8175      8178      8175      8178      8181      8182
      8175      8178      8181      8183      8175      8178      8181      8184
      8176      8175      8178      8179      8176      8175      8178      8180
      8176      8175      8178      8181      8177      8175      8178      8179
      8177      8175      8178      8180      8177      8175      8178      8181
      8178      8181      8184      8185      8178      8181      8184      8186
      8178      8181      8184      8187      8179      8178      8181      8182
      8179      8178      8181      8183      8179      8178      8181      8184
      8180      8178      8181      8182      8180      8178      8181      8183
      8180      8178      8181      8184      8181      8184      8187      8188
      8181      8184      8187      8189      8181      8184      8187      8190
      8182      8181      8184      8185      8182      8181      8184      8186
      8182      8181      8184      8187      8183      8181      8184      8185
      8183      8181      8184      8186      8183      8181      8184      8187
      8184      8187      8190      8191      8184      8187      8190      8192
      8184      8187      8190      8193      8185      8184      8187      8188
      8185      8184      8187      8189      8185      8184      8187      8190
      8186      8184      8187      8188      8186      8184      8187      8189
      8186      8184      8187      8190      8187      8190      8193      8194
      8187      8190      8193      8195      8187      8190      8193      8196
      8188      8187      8190      8191      8188      8187      8190      8192
      8188      8187      8190      8193      8189      8187      8190      8191
      8189      8187      8190      8192      8189      8187      8190      8193
      8191      8190      8193      8194      8191      8190      8193      8195
      8191      8190      8193      8196      8192      8190      8193      8194
      8192      8190      8193      8195      8192      8190      8193      8196
      8197      8200      8203      8204      8197      8200      8203      8205
      8197      8200      8203      8206      8198      8197      8200      8201
      8198      8197      8200      8202      8198      8197      8200      8203
      8199      8197      8200      8201      8199      8197      8200      8202
      8199      8197      8200      8203      8200      8203      8206      8207
      8200      8203      8206      8208      8200      8203      8206      8209
      8201      8200      8203      8204      8201      8200      8203      8205
      8201      8200      8203      8206      8202      8200      8203      8204
      8202      8200      8203      8205      8202      8200      8203      8206
      8203      8206      8209      8210      8203      8206      8209      8211
      8203      8206      8209      8212      8204      8203      8206      8207
      8204      8203      8206      8208      8204      8203      8206      8209
      8205      8203      8206      8207      8205      8203      8206      8208
      8205      8203      8206      8209      8206      8209      8212      8213
      8206      8209      8212      8214      8206      8209      8212      8215
      8207      8206      8209      8210      8207      8206      8209      8211
      8207      8206      8209      8212      8208      8206      8209      8210
      8208      8206      8209      8211      8208      8206      8209      8212
      8209      8212      8215      8216      8209      8212      8215      8217
      8209      8212      8215      8218      8210      8209      8212      8213
      8210      8209      8212      8214      8210      8209      8212      8215
      8211      8209      8212      8213      8211      8209      8212      8214
      8211      8209      8212      8215      8212      8215      8218      8219
      8212      8215      8218      8220      8212      8215      8218      8221
      8213      8212      8215      8216      8213      8212      8215      8217
      8213      8212      8215      8218      8214      8212      8215      8216
      8214      8212      8215      8217      8214      8212      8215      8218
      8215      8218      8221      8222      8215      8218      8221      8223
      8215      8218      8221      8224      8216      8215      8218      8219
      8216      8215      8218      8220      8216      8215      8218      8221
      8217      8215      8218      8219      8217      8215      8218      8220
      8217      8215      8218      8221      8218      8221      8224      8225
      8218      8221      8224      8226      8218      8221      8224      8227
      8219      8218      8221      8222      8219      8218      8221      8223
      8219      8218      8221      8224      8220      8218      8221      8222
      8220      8218      8221      8223      8220      8218      8221      8224
      8221      8224      8227      8228      8221      8224      8227      8229
      8221      8224      8227      8230      8222      8221      8224      8225
      8222      8221      8224      8226      8222      8221      8224      8227
      8223      8221      8224      8225      8223      8221      8224      8226
      8223      8221      8224      8227      8224      8227      8230      8231
      8224      8227      8230      8232      8224      8227      8230      8233
      8225      8224      8227      8228      8225      8224      8227      8229
      8225      8224      8227      8230      8226      8224      8227      8228
      8226      8224      8227      8229      8226      8224      8227      8230
      8227      8230      8233      8234      8227      8230      8233      8235
      8227      8230      8233      8236      8228      8227      8230      8231
      8228      8227      8230      8232      8228      8227      8230      8233
      8229      8227      8230      8231      8229      8227      8230      8232
      8229      8227      8230      8233      8230      8233      8236      8237
      8230      8233      8236      8238      8230      8233      8236      8239
      8231      8230      8233      8234      8231      8230      8233      8235
      8231      8230      8233      8236      8232      8230      8233      8234
      8232      8230      8233      8235      8232      8230      8233      8236
      8233      8236      8239      8240      8233      8236      8239      8241
      8233      8236      8239      8242      8234      8233      8236      8237
      8234      8233      8236      8238      8234      8233      8236      8239
      8235      8233      8236      8237      8235      8233      8236      8238
      8235      8233      8236      8239      8236      8239      8242      8243
      8236      8239      8242      8244      8236      8239      8242      8245
      8237      8236      8239      8240      8237      8236      8239      8241
      8237      8236      8239      8242      8238      8236      8239      8240
      8238      8236      8239      8241      8238      8236      8239      8242
      8240      8239      8242      8243      8240      8239      8242      8244
      8240      8239      8242      8245      8241      8239      8242      8243
      8241      8239      8242      8244      8241      8239      8242      8245
      8246      8250      8253      8254      8246      8250      8253      8255
      8246      8250      8253      8259      8247      8246      8250      8251
      8247      8246      8250      8252      8247      8246      8250      8253
      8248      8246      8250      8251      8248      8246      8250      8252
      8248      8246      8250      8253      8249      8246      8250      8251
      8249      8246      8250      8252      8249      8246      8250      8253
      8250      8253      8259      8256      8251      8250      8253      8254
      8251      8250      8253      8255      8251      8250      8253      8259
      8252      8250      8253      8254      8252      8250      8253      8255
      8252      8250      8253      8259      8253      8259      8256      8257
      8253      8259      8256      8258      8253      8259      8256      8260
      8254      8253      8259      8256      8255      8253      8259      8256
      8256      8260      8261      8262      8256      8260      8261      8263
      8256      8260      8261      8264      8257      8256      8260      8261
      8258      8256      8260      8261      8259      8256      8260      8261
      8260      8261      8264      8265      8260      8261      8264      8266
      8260      8261      8264      8272      8261      8264      8266      8267
      8261      8264      8272      8273      8261      8264      8272      8274
      8261      8264      8272      8275      8262      8261      8264      8265
      8262      8261      8264      8266      8262      8261      8264      8272
      8263      8261      8264      8265      8263      8261      8264      8266
      8263      8261      8264      8272      8264      8266      8267      8268
      8264      8266      8267      8269      8264      8272      8275      8276
      8265      8264      8266      8267      8265      8264      8272      8273
      8265      8264      8272      8274      8265      8264      8272      8275
      8266      8264      8272      8273      8266      8264      8272      8274
      8266      8264      8272      8275      8266      8267      8269      8270
      8266      8267      8269      8271      8266      8267      8269      8281
      8267      8266      8264      8272      8267      8269      8281      8282
      8267      8269      8281      8283      8267      8269      8281      8284
      8268      8267      8269      8270      8268      8267      8269      8271
      8268      8267      8269      8281      8269      8281      8284      8285
      8269      8281      8284      8286      8269      8281      8284      8287
      8270      8269      8281      8282      8270      8269      8281      8283
      8270      8269      8281      8284      8271      8269      8281      8282
      8271      8269      8281      8283      8271      8269      8281      8284
      8272      8275      8276      8277      8272      8275      8276      8278
      8273      8272      8275      8276      8274      8272      8275      8276
      8275      8276      8278      8279      8275      8276      8278      8280
      8275      8276      8278      8328      8276      8278      8328      8329
      8276      8278      8328      8330      8276      8278      8328      8331
      8277      8276      8278      8279      8277      8276      8278      8280
      8277      8276      8278      8328      8278      8328      8331      8332
      8278      8328      8331      8333      8278      8328      8331      8334
      8279      8278      8328      8329      8279      8278      8328      8330
      8279      8278      8328      8331      8280      8278      8328      8329
      8280      8278      8328      8330      8280      8278      8328      8331
      8281      8284      8287      8288      8281      8284      8287      8289
      8281      8284      8287      8290      8282      8281      8284      8285
      8282      8281      8284      8286      8282      8281      8284      8287
      8283      8281      8284      8285      8283      8281      8284      8286
      8283      8281      8284      8287      8284      8287      8290      8291
      8284      8287      8290      8292      8284      8287      8290      8293
      8285      8284      8287      8288      8285      8284      8287      8289
      8285      8284      8287      8290      8286      8284      8287      8288
      8286      8284      8287      8289      8286      8284      8287      8290
      8287      8290      8293      8294      8287      8290      8293      8295
      8287      8290      8293      8296      8288      8287      8290      8291
      8288      8287      8290      8292      8288      8287      8290      8293
      8289      8287      8290      8291      8289      8287      8290      8292
      8289      8287      8290      8293      8290      8293      8296      8297
      8290      8293      8296      8298      8290      8293      8296      8299
      8291      8290      8293      8294      8291      8290      8293      8295
      8291      8290      8293      8296      8292      8290      8293      8294
      8292      8290      8293      8295      8292      8290      8293      8296
      8293      8296      8299      8300      8293      8296      8299      8301
      8294      8293      8296      8297      8294      8293      8296      8298
      8294      8293      8296      8299      8295      8293      8296      8297
      8295      8293      8296      8298      8295      8293      8296      8299
      8296      8299      8301      8302      8296      8299      8301      8303
      8297      8296      8299      8300      8297      8296      8299      8301
      8298      8296      8299      8300      8298      8296      8299      8301
      8299      8301      8303      8304      8299      8301      8303      8305
      8299      8301      8303      8306      8300      8299      8301      8302
      8300      8299      8301      8303      8301      8303      8306      8307
      8301      8303      8306      8308      8301      8303      8306      8309
      8302      8301      8303      8304      8302      8301      8303      8305
      8302      8301      8303      8306      8303      8306      8309      8310
      8303      8306      8309      8311      8303      8306      8309      8312
      8304      8303      8306      8307      8304      8303      8306      8308
      8304      8303      8306      8309      8305      8303      8306      8307
      8305      8303      8306      8308      8305      8303      8306      8309
      8306      8309      8312      8313      8306      8309      8312      8314
      8306      8309      8312      8315      8307      8306      8309      8310
      8307      8306      8309      8311      8307      8306      8309      8312
      8308      8306      8309      8310      8308      8306      8309      8311
      8308      8306      8309      8312      8309      8312      8315      8316
      8309      8312      8315      8317      8309      8312      8315      8318
      8310      8309      8312      8313      8310      8309      8312      8314
      8310      8309      8312      8315      8311      8309      8312      8313
      8311      8309      8312      8314      8311      8309      8312      8315
      8312      8315      8318      8319      8312      8315      8318      8320
      8312      8315      8318      8321      8313      8312      8315      8316
      8313      8312      8315      8317      8313      8312      8315      8318
      8314      8312      8315      8316      8314      8312      8315      8317
      8314      8312      8315      8318      8315      8318      8321      8322
      8315      8318      8321      8323      8315      8318      8321      8324
      8316      8315      8318      8319      8316      8315      8318      8320
      8316      8315      8318      8321      8317      8315      8318      8319
      8317      8315      8318      8320      8317      8315      8318      8321
      8318      8321      8324      8325      8318      8321      8324      8326
      8318      8321      8324      8327      8319      8318      8321      8322
      8319      8318      8321      8323      8319      8318      8321      8324
      8320      8318      8321      8322      8320      8318      8321      8323
      8320      8318      8321      8324      8322      8321      8324      8325
      8322      8321      8324      8326      8322      8321      8324      8327
      8323      8321      8324      8325      8323      8321      8324      8326
      8323      8321      8324      8327      8328      8331      8334      8335
      8328      8331      8334      8336      8328      8331      8334      8337
      8329      8328      8331      8332      8329      8328      8331      8333
      8329      8328      8331      8334      8330      8328      8331      8332
      8330      8328      8331      8333      8330      8328      8331      8334
      8331      8334      8337      8338      8331      8334      8337      8339
      8331      8334      8337      8340      8332      8331      8334      8335
      8332      8331      8334      8336      8332      8331      8334      8337
      8333      8331      8334      8335      8333      8331      8334      8336
      8333      8331      8334      8337      8334      8337      8340      8341
      8334      8337      8340      8342      8334      8337      8340      8343
      8335      8334      8337      8338      8335      8334      8337      8339
      8335      8334      8337      8340      8336      8334      8337      8338
      8336      8334      8337      8339      8336      8334      8337      8340
      8337      8340      8343      8344      8337      8340      8343      8345
      8337      8340      8343      8346      8338      8337      8340      8341
      8338      8337      8340      8342      8338      8337      8340      8343
      8339      8337      8340      8341      8339      8337      8340      8342
      8339      8337      8340      8343      8340      8343      8346      8347
      8340      8343      8346      8348      8340      8343      8346      8349
      8341      8340      8343      8344      8341      8340      8343      8345
      8341      8340      8343      8346      8342      8340      8343      8344
      8342      8340      8343      8345      8342      8340      8343      8346
      8343      8346      8349      8350      8343      8346      8349      8351
      8343      8346      8349      8352      8344      8343      8346      8347
      8344      8343      8346      8348      8344      8343      8346      8349
      8345      8343      8346      8347      8345      8343      8346      8348
      8345      8343      8346      8349      8346      8349      8352      8353
      8346      8349      8352      8354      8346      8349      8352      8355
      8347      8346      8349      8350      8347      8346      8349      8351
      8347      8346      8349      8352      8348      8346      8349      8350
      8348      8346      8349      8351      8348      8346      8349      8352
      8349      8352      8355      8356      8349      8352      8355      8357
      8349      8352      8355      8358      8350      8349      8352      8353
      8350      8349      8352      8354      8350      8349      8352      8355
      8351      8349      8352      8353      8351      8349      8352      8354
      8351      8349      8352      8355      8352      8355      8358      8359
      8352      8355      8358      8360      8352      8355      8358      8361
      8353      8352      8355      8356      8353      8352      8355      8357
      8353      8352      8355      8358      8354      8352      8355      8356
      8354      8352      8355      8357      8354      8352      8355      8358
      8355      8358      8361      8362      8355      8358      8361      8363
      8355      8358      8361      8364      8356      8355      8358      8359
      8356      8355      8358      8360      8356      8355      8358      8361
      8357      8355      8358      8359      8357      8355      8358      8360
      8357      8355      8358      8361      8358      8361      8364      8365
      8358      8361      8364      8366      8358      8361      8364      8367
      8359      8358      8361      8362      8359      8358      8361      8363
      8359      8358      8361      8364      8360      8358      8361      8362
      8360      8358      8361      8363      8360      8358      8361      8364
      8361      8364      8367      8368      8361      8364      8367      8369
      8361      8364      8367      8370      8362      8361      8364      8365
      8362      8361      8364      8366      8362      8361      8364      8367
      8363      8361      8364      8365      8363      8361      8364      8366
      8363      8361      8364      8367      8364      8367      8370      8371
      8364      8367      8370      8372      8364      8367      8370      8373
      8365      8364      8367      8368      8365      8364      8367      8369
      8365      8364      8367      8370      8366      8364      8367      8368
      8366      8364      8367      8369      8366      8364      8367      8370
      8367      8370      8373      8374      8367      8370      8373      8375
      8367      8370      8373      8376      8368      8367      8370      8371
      8368      8367      8370      8372      8368      8367      8370      8373
      8369      8367      8370      8371      8369      8367      8370      8372
      8369      8367      8370      8373      8371      8370      8373      8374
      8371      8370      8373      8375      8371      8370      8373      8376
      8372      8370      8373      8374      8372      8370      8373      8375
      8372      8370      8373      8376      6509      6513      6516      6517
      6509      6513      6516      6547      6509      6555      6552      6547
      6509      6555      6552      6553      6509      6555      6552      6554
      6510      6509      6511      6512      6510      6509      6513      6514
      6510      6509      6513      6515      6510      6509      6513      6516
      6510      6509      6555      6552      6510      6509      6555      6556
      6510      6509      6555      6557      6511      6509      6513      6514
      6511      6509      6513      6515      6511      6509      6513      6516
      6511      6509      6555      6552      6511      6509      6555      6556
      6511      6509      6555      6557      6512      6511      6509      6513
      6512      6511      6509      6555      6513      6509      6555      6552
      6513      6509      6555      6556      6513      6509      6555      6557
      6513      6516      6517      6518      6513      6516      6517      6519
      6513      6516      6547      6545      6513      6516      6547      6548
      6513      6516      6547      6552      6514      6513      6509      6555
      6514      6513      6516      6517      6514      6513      6516      6547
      6515      6513      6509      6555      6515      6513      6516      6517
      6515      6513      6516      6547      6516      6513      6509      6555
      6516      6517      6519      6520      6516      6517      6519      6521
      6516      6517      6519      6522      6516      6547      6545      6522
      6516      6547      6545      6542      6516      6547      6545      6546
      6516      6547      6548      6549      6516      6547      6548      6550
      6516      6547      6548      6551      6516      6547      6552      6553
      6516      6547      6552      6554      6516      6547      6552      6555
      6517      6516      6547      6545      6517      6516      6547      6548
      6517      6516      6547      6552      6517      6519      6522      6523
      6517      6519      6522      6524      6517      6519      6522      6545
      6518      6517      6516      6547      6518      6517      6519      6520
      6518      6517      6519      6521      6518      6517      6519      6522
      6519      6517      6516      6547      6519      6522      6524      6525
      6519      6522      6524      6526      6519      6522      6524      6534
      6519      6522      6545      6542      6519      6522      6545      6546
      6519      6522      6545      6547      6520      6519      6522      6523
      6520      6519      6522      6524      6520      6519      6522      6545
      6521      6519      6522      6523      6521      6519      6522      6524
      6521      6519      6522      6545      6522      6524      6526      6527
      6522      6524      6526      6528      6522      6524      6526      6529
      6522      6524      6534      6532      6522      6524      6534      6535
      6522      6524      6534      6539      6522      6545      6542      6539
      6522      6545      6542      6543      6522      6545      6542      6544
      6522      6545      6547      6548      6522      6545      6547      6552
      6523      6522      6524      6525      6523      6522      6524      6526
      6523      6522      6524      6534      6523      6522      6545      6542
      6523      6522      6545      6546      6523      6522      6545      6547
      6524      6522      6545      6542      6524      6522      6545      6546
      6524      6522      6545      6547      6524      6526      6529      6530
      6524      6526      6529      6531      6524      6526      6529      6532
      6524      6534      6532      6529      6524      6534      6532      6533
      6524      6534      6532      6558      6524      6534      6535      6536
      6524      6534      6535      6537      6524      6534      6535      6538
      6524      6534      6539      6540      6524      6534      6539      6541
      6524      6534      6539      6542      6525      6524      6522      6545
      6525      6524      6526      6527      6525      6524      6526      6528
      6525      6524      6526      6529      6525      6524      6534      6532
      6525      6524      6534      6535      6525      6524      6534      6539
      6526      6524      6522      6545      6526      6524      6534      6532
      6526      6524      6534      6535      6526      6524      6534      6539
      6526      6529      6532      6533      6526      6529      6532      6534
      6526      6529      6532      6558      6527      6526      6524      6534
      6527      6526      6529      6530      6527      6526      6529      6531
      6527      6526      6529      6532      6528      6526      6524      6534
      6528      6526      6529      6530      6528      6526      6529      6531
      6528      6526      6529      6532      6529      6526      6524      6534
      6529      6532      6534      6535      6529      6532      6534      6539
      6529      6532      6558      6559      6529      6532      6558      6560
      6529      6532      6558      6564      6530      6529      6532      6533
      6530      6529      6532      6534      6530      6529      6532      6558
      6531      6529      6532      6533      6531      6529      6532      6534
      6531      6529      6532      6558      6532      6534      6535      6536
      6532      6534      6535      6537      6532      6534      6535      6538
      6532      6534      6539      6540      6532      6534      6539      6541
      6532      6534      6539      6542      6532      6558      6560      6561
      6532      6558      6560      6562      6532      6558      6560      6563
      6532      6558      6564      6565      6532      6558      6564      6566
      6532      6558      6564      6567      6533      6532      6534      6535
      6533      6532      6534      6539      6533      6532      6558      6559
      6533      6532      6558      6560      6533      6532      6558      6564
      6534      6524      6522      6545      6534      6532      6558      6559
      6534      6532      6558      6560      6534      6532      6558      6564
      6534      6539      6542      6543      6534      6539      6542      6544
      6534      6539      6542      6545      6535      6534      6532      6558
      6535      6534      6539      6540      6535      6534      6539      6541
      6535      6534      6539      6542      6536      6535      6534      6539
      6537      6535      6534      6539      6538      6535      6534      6539
      6539      6534      6532      6558      6539      6542      6545      6546
      6539      6542      6545      6547      6540      6539      6542      6543
      6540      6539      6542      6544      6540      6539      6542      6545
      6541      6539      6542      6543      6541      6539      6542      6544
      6541      6539      6542      6545      6542      6545      6547      6548
      6542      6545      6547      6552      6543      6542      6545      6546
      6543      6542      6545      6547      6544      6542      6545      6546
      6544      6542      6545      6547      6545      6547      6548      6549
      6545      6547      6548      6550      6545      6547      6548      6551
      6545      6547      6552      6553      6545      6547      6552      6554
      6545      6547      6552      6555      6546      6545      6547      6548
      6546      6545      6547      6552      6547      6552      6555      6556
      6547      6552      6555      6557      6548      6547      6552      6553
      6548      6547      6552      6554      6548      6547      6552      6555
      6549      6548      6547      6552      6550      6548      6547      6552
      6551      6548      6547      6552      6553      6552      6555      6556
      6553      6552      6555      6557      6554      6552      6555      6556
      6554      6552      6555      6557      6558      6564      6567      6568
      6558      6564      6567      6569      6558      6564      6567      6570
      6559      6558      6560      6561      6559      6558      6560      6562
      6559      6558      6560      6563      6559      6558      6564      6565
      6559      6558      6564      6566      6559      6558      6564      6567
      6560      6558      6564      6565      6560      6558      6564      6566
      6560      6558      6564      6567      6561      6560      6558      6564
      6562      6560      6558      6564      6563      6560      6558      6564
      6564      6567      6570      6571      6564      6567      6570      6572
      6564      6567      6570      6573      6565      6564      6567      6568
      6565      6564      6567      6569      6565      6564      6567      6570
      6566      6564      6567      6568      6566      6564      6567      6569
      6566      6564      6567      6570      6567      6570      6573      6574
      6567      6570      6573      6575      6567      6570      6573      6579
      6568      6567      6570      6571      6568      6567      6570      6572
      6568      6567      6570      6573      6569      6567      6570      6571
      6569      6567      6570      6572      6569      6567      6570      6573
      6570      6573      6575      6576      6570      6573      6575      6577
      6570      6573      6575      6578      6570      6573      6579      6580
      6570      6573      6579      6581      6570      6573      6579      6582
      6571      6570      6573      6574      6571      6570      6573      6575
      6571      6570      6573      6579      6572      6570      6573      6574
      6572      6570      6573      6575      6572      6570      6573      6579
      6574      6573      6575      6576      6574      6573      6575      6577
      6574      6573      6575      6578      6574      6573      6579      6580
      6574      6573      6579      6581      6574      6573      6579      6582
      6575      6573      6579      6580      6575      6573      6579      6581
      6575      6573      6579      6582      6576      6575      6573      6579
      6577      6575      6573      6579      6578      6575      6573      6579
     15297     15310     15313     15314     15297     15310     15313     15315
     15297     15310     15313     15320     15298     15297     15302     15303
     15298     15297     15302     15304     15298     15297     15302     15305
     15298     15297     15306     15307     15298     15297     15306     15308
     15298     15297     15306     15309     15298     15297     15310     15311
     15298     15297     15310     15312     15298     15297     15310     15313
     15299     15298     15297     15302     15299     15298     15297     15306
     15299     15298     15297     15310     15300     15298     15297     15302
     15300     15298     15297     15306     15300     15298     15297     15310
     15301     15298     15297     15302     15301     15298     15297     15306
     15301     15298     15297     15310     15302     15297     15306     15307
     15302     15297     15306     15308     15302     15297     15306     15309
     15302     15297     15310     15311     15302     15297     15310     15312
     15302     15297     15310     15313     15303     15302     15297     15306
     15303     15302     15297     15310     15304     15302     15297     15306
     15304     15302     15297     15310     15305     15302     15297     15306
     15305     15302     15297     15310     15306     15297     15310     15311
     15306     15297     15310     15312     15306     15297     15310     15313
     15307     15306     15297     15310     15308     15306     15297     15310
     15309     15306     15297     15310     15310     15313     15320     15316
     15311     15310     15313     15314     15311     15310     15313     15315
     15311     15310     15313     15320     15312     15310     15313     15314
     15312     15310     15313     15315     15312     15310     15313     15320
     15313     15320     15316     15317     15313     15320     15316     15318
     15313     15320     15316     15319     15314     15313     15320     15316
     15315     15313     15320     15316     15316     15319     15321     15322
     15316     15319     15321     15323     15316     15319     15321     15326
     15317     15316     15319     15321     15318     15316     15319     15321
     15319     15321     15326     15324     15319     15321     15326     15327
     15319     15321     15326     15328     15320     15316     15319     15321
     15321     15326     15324     15325     15321     15326     15324     15376
     15321     15326     15328     15329     15321     15326     15328     15330
     15321     15326     15328     15332     15322     15321     15326     15324
     15322     15321     15326     15327     15322     15321     15326     15328
     15323     15321     15326     15324     15323     15321     15326     15327
     15323     15321     15326     15328     15324     15326     15328     15329
     15324     15326     15328     15330     15324     15326     15328     15332
     15324     15376     15378     15379     15324     15376     15378     15380
     15324     15376     15378     15381     15325     15324     15326     15327
     15325     15324     15326     15328     15325     15324     15376     15377
     15325     15324     15376     15378     15326     15324     15376     15377
     15326     15324     15376     15378     15326     15328     15330     15331
     15326     15328     15332     15333     15326     15328     15332     15334
     15327     15326     15324     15376     15327     15326     15328     15329
     15327     15326     15328     15330     15327     15326     15328     15332
     15328     15326     15324     15376     15328     15332     15334     15335
     15328     15332     15334     15336     15329     15328     15330     15331
     15329     15328     15332     15333     15329     15328     15332     15334
     15330     15328     15332     15333     15330     15328     15332     15334
     15331     15330     15328     15332     15332     15334     15336     15337
     15332     15334     15336     15338     15332     15334     15336     15339
     15333     15332     15334     15335     15333     15332     15334     15336
     15334     15336     15339     15340     15334     15336     15339     15341
     15334     15336     15339     15342     15335     15334     15336     15337
     15335     15334     15336     15338     15335     15334     15336     15339
     15336     15339     15342     15343     15336     15339     15342     15344
     15336     15339     15342     15345     15337     15336     15339     15340
     15337     15336     15339     15341     15337     15336     15339     15342
     15338     15336     15339     15340     15338     15336     15339     15341
     15338     15336     15339     15342     15339     15342     15345     15346
     15339     15342     15345     15347     15339     15342     15345     15348
     15340     15339     15342     15343     15340     15339     15342     15344
     15340     15339     15342     15345     15341     15339     15342     15343
     15341     15339     15342     15344     15341     15339     15342     15345
     15342     15345     15348     15349     15342     15345     15348     15350
     15342     15345     15348     15351     15343     15342     15345     15346
     15343     15342     15345     15347     15343     15342     15345     15348
     15344     15342     15345     15346     15344     15342     15345     15347
     15344     15342     15345     15348     15345     15348     15351     15352
     15345     15348     15351     15353     15345     15348     15351     15354
     15346     15345     15348     15349     15346     15345     15348     15350
     15346     15345     15348     15351     15347     15345     15348     15349
     15347     15345     15348     15350     15347     15345     15348     15351
     15348     15351     15354     15355     15348     15351     15354     15356
     15348     15351     15354     15357     15349     15348     15351     15352
     15349     15348     15351     15353     15349     15348     15351     15354
     15350     15348     15351     15352     15350     15348     15351     15353
     15350     15348     15351     15354     15351     15354     15357     15358
     15351     15354     15357     15359     15351     15354     15357     15360
     15352     15351     15354     15355     15352     15351     15354     15356
     15352     15351     15354     15357     15353     15351     15354     15355
     15353     15351     15354     15356     15353     15351     15354     15357
     15354     15357     15360     15361     15354     15357     15360     15362
     15354     15357     15360     15363     15355     15354     15357     15358
     15355     15354     15357     15359     15355     15354     15357     15360
     15356     15354     15357     15358     15356     15354     15357     15359
     15356     15354     15357     15360     15357     15360     15363     15364
     15357     15360     15363     15365     15357     15360     15363     15366
     15358     15357     15360     15361     15358     15357     15360     15362
     15358     15357     15360     15363     15359     15357     15360     15361
     15359     15357     15360     15362     15359     15357     15360     15363
     15360     15363     15366     15367     15360     15363     15366     15368
     15360     15363     15366     15369     15361     15360     15363     15364
     15361     15360     15363     15365     15361     15360     15363     15366
     15362     15360     15363     15364     15362     15360     15363     15365
     15362     15360     15363     15366     15363     15366     15369     15370
     15363     15366     15369     15371     15363     15366     15369     15372
     15364     15363     15366     15367     15364     15363     15366     15368
     15364     15363     15366     15369     15365     15363     15366     15367
     15365     15363     15366     15368     15365     15363     15366     15369
     15366     15369     15372     15373     15366     15369     15372     15374
     15366     15369     15372     15375     15367     15366     15369     15370
     15367     15366     15369     15371     15367     15366     15369     15372
     15368     15366     15369     15370     15368     15366     15369     15371
     15368     15366     15369     15372     15370     15369     15372     15373
     15370     15369     15372     15374     15370     15369     15372     15375
     15371     15369     15372     15373     15371     15369     15372     15374
     15371     15369     15372     15375     15376     15378     15381     15382
     15376     15378     15381     15383     15376     15378     15381     15384
     15377     15376     15378     15379     15377     15376     15378     15380
     15377     15376     15378     15381     15378     15381     15384     15385
     15378     15381     15384     15386     15378     15381     15384     15387
     15379     15378     15381     15382     15379     15378     15381     15383
     15379     15378     15381     15384     15380     15378     15381     15382
     15380     15378     15381     15383     15380     15378     15381     15384
     15381     15384     15387     15388     15381     15384     15387     15389
     15381     15384     15387     15390     15382     15381     15384     15385
     15382     15381     15384     15386     15382     15381     15384     15387
     15383     15381     15384     15385     15383     15381     15384     15386
     15383     15381     15384     15387     15384     15387     15390     15391
     15384     15387     15390     15392     15384     15387     15390     15393
     15385     15384     15387     15388     15385     15384     15387     15389
     15385     15384     15387     15390     15386     15384     15387     15388
     15386     15384     15387     15389     15386     15384     15387     15390
     15387     15390     15393     15394     15387     15390     15393     15395
     15387     15390     15393     15396     15388     15387     15390     15391
     15388     15387     15390     15392     15388     15387     15390     15393
     15389     15387     15390     15391     15389     15387     15390     15392
     15389     15387     15390     15393     15390     15393     15396     15397
     15390     15393     15396     15398     15390     15393     15396     15399
     15391     15390     15393     15394     15391     15390     15393     15395
     15391     15390     15393     15396     15392     15390     15393     15394
     15392     15390     15393     15395     15392     15390     15393     15396
     15393     15396     15399     15400     15393     15396     15399     15401
     15394     15393     15396     15397     15394     15393     15396     15398
     15394     15393     15396     15399     15395     15393     15396     15397
     15395     15393     15396     15398     15395     15393     15396     15399
     15396     15399     15401     15402     15396     15399     15401     15403
     15397     15396     15399     15400     15397     15396     15399     15401
     15398     15396     15399     15400     15398     15396     15399     15401
     15399     15401     15403     15404     15399     15401     15403     15405
     15399     15401     15403     15406     15400     15399     15401     15402
     15400     15399     15401     15403     15401     15403     15406     15407
     15401     15403     15406     15408     15401     15403     15406     15409
     15402     15401     15403     15404     15402     15401     15403     15405
     15402     15401     15403     15406     15403     15406     15409     15410
     15403     15406     15409     15411     15403     15406     15409     15412
     15404     15403     15406     15407     15404     15403     15406     15408
     15404     15403     15406     15409     15405     15403     15406     15407
     15405     15403     15406     15408     15405     15403     15406     15409
     15406     15409     15412     15413     15406     15409     15412     15414
     15406     15409     15412     15415     15407     15406     15409     15410
     15407     15406     15409     15411     15407     15406     15409     15412
     15408     15406     15409     15410     15408     15406     15409     15411
     15408     15406     15409     15412     15409     15412     15415     15416
     15409     15412     15415     15417     15409     15412     15415     15418
     15410     15409     15412     15413     15410     15409     15412     15414
     15410     15409     15412     15415     15411     15409     15412     15413
     15411     15409     15412     15414     15411     15409     15412     15415
     15412     15415     15418     15419     15412     15415     15418     15420
     15412     15415     15418     15421     15413     15412     15415     15416
     15413     15412     15415     15417     15413     15412     15415     15418
     15414     15412     15415     15416     15414     15412     15415     15417
     15414     15412     15415     15418     15415     15418     15421     15422
     15415     15418     15421     15423     15415     15418     15421     15424
     15416     15415     15418     15419     15416     15415     15418     15420
     15416     15415     15418     15421     15417     15415     15418     15419
     15417     15415     15418     15420     15417     15415     15418     15421
     15418     15421     15424     15425     15418     15421     15424     15426
     15418     15421     15424     15427     15419     15418     15421     15422
     15419     15418     15421     15423     15419     15418     15421     15424
     15420     15418     15421     15422     15420     15418     15421     15423
     15420     15418     15421     15424     15422     15421     15424     15425
     15422     15421     15424     15426     15422     15421     15424     15427
     15423     15421     15424     15425     15423     15421     15424     15426
     15423     15421     15424     15427     19358     19362     19365     19366
     19358     19362     19365     19367     19358     19362     19365     19371
     19359     19358     19362     19363     19359     19358     19362     19364
     19359     19358     19362     19365     19360     19358     19362     19363
     19360     19358     19362     19364     19360     19358     19362     19365
     19361     19358     19362     19363     19361     19358     19362     19364
     19361     19358     19362     19365     19362     19365     19371     19368
     19363     19362     19365     19366     19363     19362     19365     19367
     19363     19362     19365     19371     19364     19362     19365     19366
     19364     19362     19365     19367     19364     19362     19365     19371
     19365     19371     19368     19369     19365     19371     19368     19370
     19365     19371     19368     19372     19366     19365     19371     19368
     19367     19365     19371     19368     19368     19372     19373     19374
     19368     19372     19373     19375     19368     19372     19373     19376
     19369     19368     19372     19373     19370     19368     19372     19373
     19371     19368     19372     19373     19372     19373     19376     19377
     19372     19373     19376     19378     19372     19373     19376     19384
     19373     19376     19378     19379     19373     19376     19384     19385
     19373     19376     19384     19386     19373     19376     19384     19387
     19374     19373     19376     19377     19374     19373     19376     19378
     19374     19373     19376     19384     19375     19373     19376     19377
     19375     19373     19376     19378     19375     19373     19376     19384
     19376     19378     19379     19380     19376     19378     19379     19381
     19376     19384     19387     19388     19377     19376     19378     19379
     19377     19376     19384     19385     19377     19376     19384     19386
     19377     19376     19384     19387     19378     19376     19384     19385
     19378     19376     19384     19386     19378     19376     19384     19387
     19378     19379     19381     19382     19378     19379     19381     19383
     19378     19379     19381     19393     19379     19378     19376     19384
     19379     19381     19393     19394     19379     19381     19393     19395
     19379     19381     19393     19396     19380     19379     19381     19382
     19380     19379     19381     19383     19380     19379     19381     19393
     19381     19393     19396     19397     19381     19393     19396     19398
     19381     19393     19396     19399     19382     19381     19393     19394
     19382     19381     19393     19395     19382     19381     19393     19396
     19383     19381     19393     19394     19383     19381     19393     19395
     19383     19381     19393     19396     19384     19387     19388     19389
     19384     19387     19388     19390     19385     19384     19387     19388
     19386     19384     19387     19388     19387     19388     19390     19391
     19387     19388     19390     19392     19387     19388     19390     19440
     19388     19390     19440     19441     19388     19390     19440     19442
     19388     19390     19440     19443     19389     19388     19390     19391
     19389     19388     19390     19392     19389     19388     19390     19440
     19390     19440     19443     19444     19390     19440     19443     19445
     19390     19440     19443     19446     19391     19390     19440     19441
     19391     19390     19440     19442     19391     19390     19440     19443
     19392     19390     19440     19441     19392     19390     19440     19442
     19392     19390     19440     19443     19393     19396     19399     19400
     19393     19396     19399     19401     19394     19393     19396     19397
     19394     19393     19396     19398     19394     19393     19396     19399
     19395     19393     19396     19397     19395     19393     19396     19398
     19395     19393     19396     19399     19396     19399     19401     19402
     19396     19399     19401     19403     19397     19396     19399     19400
     19397     19396     19399     19401     19398     19396     19399     19400
     19398     19396     19399     19401     19399     19401     19403     19404
     19399     19401     19403     19405     19399     19401     19403     19406
     19400     19399     19401     19402     19400     19399     19401     19403
     19401     19403     19406     19407     19401     19403     19406     19408
     19402     19401     19403     19404     19402     19401     19403     19405
     19402     19401     19403     19406     19403     19406     19408     19409
     19403     19406     19408     19410     19404     19403     19406     19407
     19404     19403     19406     19408     19405     19403     19406     19407
     19405     19403     19406     19408     19406     19408     19410     19411
     19406     19408     19410     19412     19406     19408     19410     19413
     19407     19406     19408     19409     19407     19406     19408     19410
     19408     19410     19413     19414     19408     19410     19413     19415
     19409     19408     19410     19411     19409     19408     19410     19412
     19409     19408     19410     19413     19410     19413     19415     19416
     19410     19413     19415     19417     19411     19410     19413     19414
     19411     19410     19413     19415     19412     19410     19413     19414
     19412     19410     19413     19415     19413     19415     19417     19418
     19413     19415     19417     19419     19413     19415     19417     19420
     19414     19413     19415     19416     19414     19413     19415     19417
     19415     19417     19420     19421     19415     19417     19420     19422
     19416     19415     19417     19418     19416     19415     19417     19419
     19416     19415     19417     19420     19417     19420     19422     19423
     19417     19420     19422     19424     19418     19417     19420     19421
     19418     19417     19420     19422     19419     19417     19420     19421
     19419     19417     19420     19422     19420     19422     19424     19425
     19420     19422     19424     19426     19420     19422     19424     19427
     19421     19420     19422     19423     19421     19420     19422     19424
     19422     19424     19427     19428     19422     19424     19427     19429
     19422     19424     19427     19430     19423     19422     19424     19425
     19423     19422     19424     19426     19423     19422     19424     19427
     19424     19427     19430     19431     19424     19427     19430     19432
     19424     19427     19430     19433     19425     19424     19427     19428
     19425     19424     19427     19429     19425     19424     19427     19430
     19426     19424     19427     19428     19426     19424     19427     19429
     19426     19424     19427     19430     19427     19430     19433     19434
     19427     19430     19433     19435     19427     19430     19433     19436
     19428     19427     19430     19431     19428     19427     19430     19432
     19428     19427     19430     19433     19429     19427     19430     19431
     19429     19427     19430     19432     19429     19427     19430     19433
     19430     19433     19436     19437     19430     19433     19436     19438
     19430     19433     19436     19439     19431     19430     19433     19434
     19431     19430     19433     19435     19431     19430     19433     19436
     19432     19430     19433     19434     19432     19430     19433     19435
     19432     19430     19433     19436     19434     19433     19436     19437
     19434     19433     19436     19438     19434     19433     19436     19439
     19435     19433     19436     19437     19435     19433     19436     19438
     19435     19433     19436     19439     19440     19443     19446     19447
     19440     19443     19446     19448     19440     19443     19446     19449
     19441     19440     19443     19444     19441     19440     19443     19445
     19441     19440     19443     19446     19442     19440     19443     19444
     19442     19440     19443     19445     19442     19440     19443     19446
     19443     19446     19449     19450     19443     19446     19449     19451
     19443     19446     19449     19452     19444     19443     19446     19447
     19444     19443     19446     19448     19444     19443     19446     19449
     19445     19443     19446     19447     19445     19443     19446     19448
     19445     19443     19446     19449     19446     19449     19452     19453
     19446     19449     19452     19454     19446     19449     19452     19455
     19447     19446     19449     19450     19447     19446     19449     19451
     19447     19446     19449     19452     19448     19446     19449     19450
     19448     19446     19449     19451     19448     19446     19449     19452
     19449     19452     19455     19456     19449     19452     19455     19457
     19449     19452     19455     19458     19450     19449     19452     19453
     19450     19449     19452     19454     19450     19449     19452     19455
     19451     19449     19452     19453     19451     19449     19452     19454
     19451     19449     19452     19455     19452     19455     19458     19459
     19452     19455     19458     19460     19452     19455     19458     19461
     19453     19452     19455     19456     19453     19452     19455     19457
     19453     19452     19455     19458     19454     19452     19455     19456
     19454     19452     19455     19457     19454     19452     19455     19458
     19455     19458     19461     19462     19455     19458     19461     19463
     19455     19458     19461     19464     19456     19455     19458     19459
     19456     19455     19458     19460     19456     19455     19458     19461
     19457     19455     19458     19459     19457     19455     19458     19460
     19457     19455     19458     19461     19458     19461     19464     19465
     19458     19461     19464     19466     19458     19461     19464     19467
     19459     19458     19461     19462     19459     19458     19461     19463
     19459     19458     19461     19464     19460     19458     19461     19462
     19460     19458     19461     19463     19460     19458     19461     19464
     19461     19464     19467     19468     19461     19464     19467     19469
     19461     19464     19467     19470     19462     19461     19464     19465
     19462     19461     19464     19466     19462     19461     19464     19467
     19463     19461     19464     19465     19463     19461     19464     19466
     19463     19461     19464     19467     19464     19467     19470     19471
     19464     19467     19470     19472     19464     19467     19470     19473
     19465     19464     19467     19468     19465     19464     19467     19469
     19465     19464     19467     19470     19466     19464     19467     19468
     19466     19464     19467     19469     19466     19464     19467     19470
     19467     19470     19473     19474     19467     19470     19473     19475
     19467     19470     19473     19476     19468     19467     19470     19471
     19468     19467     19470     19472     19468     19467     19470     19473
     19469     19467     19470     19471     19469     19467     19470     19472
     19469     19467     19470     19473     19470     19473     19476     19477
     19470     19473     19476     19478     19470     19473     19476     19479
     19471     19470     19473     19474     19471     19470     19473     19475
     19471     19470     19473     19476     19472     19470     19473     19474
     19472     19470     19473     19475     19472     19470     19473     19476
     19473     19476     19479     19480     19473     19476     19479     19481
     19473     19476     19479     19482     19474     19473     19476     19477
     19474     19473     19476     19478     19474     19473     19476     19479
     19475     19473     19476     19477     19475     19473     19476     19478
     19475     19473     19476     19479     19476     19479     19482     19483
     19476     19479     19482     19484     19476     19479     19482     19485
     19477     19476     19479     19480     19477     19476     19479     19481
     19477     19476     19479     19482     19478     19476     19479     19480
     19478     19476     19479     19481     19478     19476     19479     19482
     19479     19482     19485     19486     19479     19482     19485     19487
     19479     19482     19485     19488     19480     19479     19482     19483
     19480     19479     19482     19484     19480     19479     19482     19485
     19481     19479     19482     19483     19481     19479     19482     19484
     19481     19479     19482     19485     19483     19482     19485     19486
     19483     19482     19485     19487     19483     19482     19485     19488
     19484     19482     19485     19486     19484     19482     19485     19487
     19484     19482     19485     19488     15428     15441     15444     15445
     15428     15441     15444     15446     15428     15441     15444     15451
     15429     15428     15433     15434     15429     15428     15433     15435
     15429     15428     15433     15436     15429     15428     15437     15438
     15429     15428     15437     15439     15429     15428     15437     15440
     15429     15428     15441     15442     15429     15428     15441     15443
     15429     15428     15441     15444     15430     15429     15428     15433
     15430     15429     15428     15437     15430     15429     15428     15441
     15431     15429     15428     15433     15431     15429     15428     15437
     15431     15429     15428     15441     15432     15429     15428     15433
     15432     15429     15428     15437     15432     15429     15428     15441
     15433     15428     15437     15438     15433     15428     15437     15439
     15433     15428     15437     15440     15433     15428     15441     15442
     15433     15428     15441     15443     15433     15428     15441     15444
     15434     15433     15428     15437     15434     15433     15428     15441
     15435     15433     15428     15437     15435     15433     15428     15441
     15436     15433     15428     15437     15436     15433     15428     15441
     15437     15428     15441     15442     15437     15428     15441     15443
     15437     15428     15441     15444     15438     15437     15428     15441
     15439     15437     15428     15441     15440     15437     15428     15441
     15441     15444     15451     15447     15442     15441     15444     15445
     15442     15441     15444     15446     15442     15441     15444     15451
     15443     15441     15444     15445     15443     15441     15444     15446
     15443     15441     15444     15451     15444     15451     15447     15448
     15444     15451     15447     15449     15444     15451     15447     15450
     15445     15444     15451     15447     15446     15444     15451     15447
     15447     15450     15452     15453     15447     15450     15452     15454
     15447     15450     15452     15457     15448     15447     15450     15452
     15449     15447     15450     15452     15450     15452     15457     15455
     15450     15452     15457     15458     15450     15452     15457     15459
     15451     15447     15450     15452     15452     15457     15455     15456
     15452     15457     15455     15507     15452     15457     15459     15460
     15452     15457     15459     15461     15452     15457     15459     15463
     15453     15452     15457     15455     15453     15452     15457     15458
     15453     15452     15457     15459     15454     15452     15457     15455
     15454     15452     15457     15458     15454     15452     15457     15459
     15455     15457     15459     15460     15455     15457     15459     15461
     15455     15457     15459     15463     15455     15507     15509     15510
     15455     15507     15509     15511     15455     15507     15509     15512
     15456     15455     15457     15458     15456     15455     15457     15459
     15456     15455     15507     15508     15456     15455     15507     15509
     15457     15455     15507     15508     15457     15455     15507     15509
     15457     15459     15461     15462     15457     15459     15463     15464
     15457     15459     15463     15465     15458     15457     15455     15507
     15458     15457     15459     15460     15458     15457     15459     15461
     15458     15457     15459     15463     15459     15457     15455     15507
     15459     15463     15465     15466     15459     15463     15465     15467
     15460     15459     15461     15462     15460     15459     15463     15464
     15460     15459     15463     15465     15461     15459     15463     15464
     15461     15459     15463     15465     15462     15461     15459     15463
     15463     15465     15467     15468     15463     15465     15467     15469
     15463     15465     15467     15470     15464     15463     15465     15466
     15464     15463     15465     15467     15465     15467     15470     15471
     15465     15467     15470     15472     15465     15467     15470     15473
     15466     15465     15467     15468     15466     15465     15467     15469
     15466     15465     15467     15470     15467     15470     15473     15474
     15467     15470     15473     15475     15467     15470     15473     15476
     15468     15467     15470     15471     15468     15467     15470     15472
     15468     15467     15470     15473     15469     15467     15470     15471
     15469     15467     15470     15472     15469     15467     15470     15473
     15470     15473     15476     15477     15470     15473     15476     15478
     15470     15473     15476     15479     15471     15470     15473     15474
     15471     15470     15473     15475     15471     15470     15473     15476
     15472     15470     15473     15474     15472     15470     15473     15475
     15472     15470     15473     15476     15473     15476     15479     15480
     15473     15476     15479     15481     15473     15476     15479     15482
     15474     15473     15476     15477     15474     15473     15476     15478
     15474     15473     15476     15479     15475     15473     15476     15477
     15475     15473     15476     15478     15475     15473     15476     15479
     15476     15479     15482     15483     15476     15479     15482     15484
     15476     15479     15482     15485     15477     15476     15479     15480
     15477     15476     15479     15481     15477     15476     15479     15482
     15478     15476     15479     15480     15478     15476     15479     15481
     15478     15476     15479     15482     15479     15482     15485     15486
     15479     15482     15485     15487     15479     15482     15485     15488
     15480     15479     15482     15483     15480     15479     15482     15484
     15480     15479     15482     15485     15481     15479     15482     15483
     15481     15479     15482     15484     15481     15479     15482     15485
     15482     15485     15488     15489     15482     15485     15488     15490
     15482     15485     15488     15491     15483     15482     15485     15486
     15483     15482     15485     15487     15483     15482     15485     15488
     15484     15482     15485     15486     15484     15482     15485     15487
     15484     15482     15485     15488     15485     15488     15491     15492
     15485     15488     15491     15493     15485     15488     15491     15494
     15486     15485     15488     15489     15486     15485     15488     15490
     15486     15485     15488     15491     15487     15485     15488     15489
     15487     15485     15488     15490     15487     15485     15488     15491
     15488     15491     15494     15495     15488     15491     15494     15496
     15488     15491     15494     15497     15489     15488     15491     15492
     15489     15488     15491     15493     15489     15488     15491     15494
     15490     15488     15491     15492     15490     15488     15491     15493
     15490     15488     15491     15494     15491     15494     15497     15498
     15491     15494     15497     15499     15491     15494     15497     15500
     15492     15491     15494     15495     15492     15491     15494     15496
     15492     15491     15494     15497     15493     15491     15494     15495
     15493     15491     15494     15496     15493     15491     15494     15497
     15494     15497     15500     15501     15494     15497     15500     15502
     15494     15497     15500     15503     15495     15494     15497     15498
     15495     15494     15497     15499     15495     15494     15497     15500
     15496     15494     15497     15498     15496     15494     15497     15499
     15496     15494     15497     15500     15497     15500     15503     15504
     15497     15500     15503     15505     15497     15500     15503     15506
     15498     15497     15500     15501     15498     15497     15500     15502
     15498     15497     15500     15503     15499     15497     15500     15501
     15499     15497     15500     15502     15499     15497     15500     15503
     15501     15500     15503     15504     15501     15500     15503     15505
     15501     15500     15503     15506     15502     15500     15503     15504
     15502     15500     15503     15505     15502     15500     15503     15506
     15507     15509     15512     15513     15507     15509     15512     15514
     15507     15509     15512     15515     15508     15507     15509     15510
     15508     15507     15509     15511     15508     15507     15509     15512
     15509     15512     15515     15516     15509     15512     15515     15517
     15509     15512     15515     15518     15510     15509     15512     15513
     15510     15509     15512     15514     15510     15509     15512     15515
     15511     15509     15512     15513     15511     15509     15512     15514
     15511     15509     15512     15515     15512     15515     15518     15519
     15512     15515     15518     15520     15512     15515     15518     15521
     15513     15512     15515     15516     15513     15512     15515     15517
     15513     15512     15515     15518     15514     15512     15515     15516
     15514     15512     15515     15517     15514     15512     15515     15518
     15515     15518     15521     15522     15515     15518     15521     15523
     15515     15518     15521     15524     15516     15515     15518     15519
     15516     15515     15518     15520     15516     15515     15518     15521
     15517     15515     15518     15519     15517     15515     15518     15520
     15517     15515     15518     15521     15518     15521     15524     15525
     15518     15521     15524     15526     15518     15521     15524     15527
     15519     15518     15521     15522     15519     15518     15521     15523
     15519     15518     15521     15524     15520     15518     15521     15522
     15520     15518     15521     15523     15520     15518     15521     15524
     15521     15524     15527     15528     15521     15524     15527     15529
     15521     15524     15527     15530     15522     15521     15524     15525
     15522     15521     15524     15526     15522     15521     15524     15527
     15523     15521     15524     15525     15523     15521     15524     15526
     15523     15521     15524     15527     15524     15527     15530     15531
     15524     15527     15530     15532     15525     15524     15527     15528
     15525     15524     15527     15529     15525     15524     15527     15530
     15526     15524     15527     15528     15526     15524     15527     15529
     15526     15524     15527     15530     15527     15530     15532     15533
     15527     15530     15532     15534     15528     15527     15530     15531
     15528     15527     15530     15532     15529     15527     15530     15531
     15529     15527     15530     15532     15530     15532     15534     15535
     15530     15532     15534     15536     15530     15532     15534     15537
     15531     15530     15532     15533     15531     15530     15532     15534
     15532     15534     15537     15538     15532     15534     15537     15539
     15532     15534     15537     15540     15533     15532     15534     15535
     15533     15532     15534     15536     15533     15532     15534     15537
     15534     15537     15540     15541     15534     15537     15540     15542
     15534     15537     15540     15543     15535     15534     15537     15538
     15535     15534     15537     15539     15535     15534     15537     15540
     15536     15534     15537     15538     15536     15534     15537     15539
     15536     15534     15537     15540     15537     15540     15543     15544
     15537     15540     15543     15545     15537     15540     15543     15546
     15538     15537     15540     15541     15538     15537     15540     15542
     15538     15537     15540     15543     15539     15537     15540     15541
     15539     15537     15540     15542     15539     15537     15540     15543
     15540     15543     15546     15547     15540     15543     15546     15548
     15540     15543     15546     15549     15541     15540     15543     15544
     15541     15540     15543     15545     15541     15540     15543     15546
     15542     15540     15543     15544     15542     15540     15543     15545
     15542     15540     15543     15546     15543     15546     15549     15550
     15543     15546     15549     15551     15543     15546     15549     15552
     15544     15543     15546     15547     15544     15543     15546     15548
     15544     15543     15546     15549     15545     15543     15546     15547
     15545     15543     15546     15548     15545     15543     15546     15549
     15546     15549     15552     15553     15546     15549     15552     15554
     15546     15549     15552     15555     15547     15546     15549     15550
     15547     15546     15549     15551     15547     15546     15549     15552
     15548     15546     15549     15550     15548     15546     15549     15551
     15548     15546     15549     15552     15549     15552     15555     15556
     15549     15552     15555     15557     15549     15552     15555     15558
     15550     15549     15552     15553     15550     15549     15552     15554
     15550     15549     15552     15555     15551     15549     15552     15553
     15551     15549     15552     15554     15551     15549     15552     15555
     15553     15552     15555     15556     15553     15552     15555     15557
     15553     15552     15555     15558     15554     15552     15555     15556
     15554     15552     15555     15557     15554     15552     15555     15558
      6583      6587      6590      6591      6583      6587      6590      6621
      6583      6629      6626      6621      6583      6629      6626      6627
      6583      6629      6626      6628      6584      6583      6585      6586
      6584      6583      6587      6588      6584      6583      6587      6589
      6584      6583      6587      6590      6584      6583      6629      6626
      6584      6583      6629      6630      6584      6583      6629      6631
      6585      6583      6587      6588      6585      6583      6587      6589
      6585      6583      6587      6590      6585      6583      6629      6626
      6585      6583      6629      6630      6585      6583      6629      6631
      6586      6585      6583      6587      6586      6585      6583      6629
      6587      6583      6629      6626      6587      6583      6629      6630
      6587      6583      6629      6631      6587      6590      6591      6592
      6587      6590      6591      6593      6587      6590      6621      6619
      6587      6590      6621      6622      6587      6590      6621      6626
      6588      6587      6583      6629      6588      6587      6590      6591
      6588      6587      6590      6621      6589      6587      6583      6629
      6589      6587      6590      6591      6589      6587      6590      6621
      6590      6587      6583      6629      6590      6591      6593      6594
      6590      6591      6593      6595      6590      6591      6593      6596
      6590      6621      6619      6596      6590      6621      6619      6616
      6590      6621      6619      6620      6590      6621      6622      6623
      6590      6621      6622      6624      6590      6621      6622      6625
      6590      6621      6626      6627      6590      6621      6626      6628
      6590      6621      6626      6629      6591      6590      6621      6619
      6591      6590      6621      6622      6591      6590      6621      6626
      6591      6593      6596      6597      6591      6593      6596      6598
      6591      6593      6596      6619      6592      6591      6590      6621
      6592      6591      6593      6594      6592      6591      6593      6595
      6592      6591      6593      6596      6593      6591      6590      6621
      6593      6596      6598      6599      6593      6596      6598      6600
      6593      6596      6598      6608      6593      6596      6619      6616
      6593      6596      6619      6620      6593      6596      6619      6621
      6594      6593      6596      6597      6594      6593      6596      6598
      6594      6593      6596      6619      6595      6593      6596      6597
      6595      6593      6596      6598      6595      6593      6596      6619
      6596      6598      6600      6601      6596      6598      6600      6602
      6596      6598      6600      6603      6596      6598      6608      6606
      6596      6598      6608      6609      6596      6598      6608      6613
      6596      6619      6616      6613      6596      6619      6616      6617
      6596      6619      6616      6618      6596      6619      6621      6622
      6596      6619      6621      6626      6597      6596      6598      6599
      6597      6596      6598      6600      6597      6596      6598      6608
      6597      6596      6619      6616      6597      6596      6619      6620
      6597      6596      6619      6621      6598      6596      6619      6616
      6598      6596      6619      6620      6598      6596      6619      6621
      6598      6600      6603      6604      6598      6600      6603      6605
      6598      6600      6603      6606      6598      6608      6606      6603
      6598      6608      6606      6607      6598      6608      6606      6632
      6598      6608      6609      6610      6598      6608      6609      6611
      6598      6608      6609      6612      6598      6608      6613      6614
      6598      6608      6613      6615      6598      6608      6613      6616
      6599      6598      6596      6619      6599      6598      6600      6601
      6599      6598      6600      6602      6599      6598      6600      6603
      6599      6598      6608      6606      6599      6598      6608      6609
      6599      6598      6608      6613      6600      6598      6596      6619
      6600      6598      6608      6606      6600      6598      6608      6609
      6600      6598      6608      6613      6600      6603      6606      6607
      6600      6603      6606      6608      6600      6603      6606      6632
      6601      6600      6598      6608      6601      6600      6603      6604
      6601      6600      6603      6605      6601      6600      6603      6606
      6602      6600      6598      6608      6602      6600      6603      6604
      6602      6600      6603      6605      6602      6600      6603      6606
      6603      6600      6598      6608      6603      6606      6608      6609
      6603      6606      6608      6613      6603      6606      6632      6633
      6603      6606      6632      6634      6603      6606      6632      6638
      6604      6603      6606      6607      6604      6603      6606      6608
      6604      6603      6606      6632      6605      6603      6606      6607
      6605      6603      6606      6608      6605      6603      6606      6632
      6606      6608      6609      6610      6606      6608      6609      6611
      6606      6608      6609      6612      6606      6608      6613      6614
      6606      6608      6613      6615      6606      6608      6613      6616
      6606      6632      6634      6635      6606      6632      6634      6636
      6606      6632      6634      6637      6606      6632      6638      6639
      6606      6632      6638      6640      6606      6632      6638      6641
      6607      6606      6608      6609      6607      6606      6608      6613
      6607      6606      6632      6633      6607      6606      6632      6634
      6607      6606      6632      6638      6608      6598      6596      6619
      6608      6606      6632      6633      6608      6606      6632      6634
      6608      6606      6632      6638      6608      6613      6616      6617
      6608      6613      6616      6618      6608      6613      6616      6619
      6609      6608      6606      6632      6609      6608      6613      6614
      6609      6608      6613      6615      6609      6608      6613      6616
      6610      6609      6608      6613      6611      6609      6608      6613
      6612      6609      6608      6613      6613      6608      6606      6632
      6613      6616      6619      6620      6613      6616      6619      6621
      6614      6613      6616      6617      6614      6613      6616      6618
      6614      6613      6616      6619      6615      6613      6616      6617
      6615      6613      6616      6618      6615      6613      6616      6619
      6616      6619      6621      6622      6616      6619      6621      6626
      6617      6616      6619      6620      6617      6616      6619      6621
      6618      6616      6619      6620      6618      6616      6619      6621
      6619      6621      6622      6623      6619      6621      6622      6624
      6619      6621      6622      6625      6619      6621      6626      6627
      6619      6621      6626      6628      6619      6621      6626      6629
      6620      6619      6621      6622      6620      6619      6621      6626
      6621      6626      6629      6630      6621      6626      6629      6631
      6622      6621      6626      6627      6622      6621      6626      6628
      6622      6621      6626      6629      6623      6622      6621      6626
      6624      6622      6621      6626      6625      6622      6621      6626
      6627      6626      6629      6630      6627      6626      6629      6631
      6628      6626      6629      6630      6628      6626      6629      6631
      6632      6638      6641      6642      6632      6638      6641      6643
      6632      6638      6641      6644      6633      6632      6634      6635
      6633      6632      6634      6636      6633      6632      6634      6637
      6633      6632      6638      6639      6633      6632      6638      6640
      6633      6632      6638      6641      6634      6632      6638      6639
      6634      6632      6638      6640      6634      6632      6638      6641
      6635      6634      6632      6638      6636      6634      6632      6638
      6637      6634      6632      6638      6638      6641      6644      6645
      6638      6641      6644      6646      6638      6641      6644      6647
      6639      6638      6641      6642      6639      6638      6641      6643
      6639      6638      6641      6644      6640      6638      6641      6642
      6640      6638      6641      6643      6640      6638      6641      6644
      6641      6644      6647      6648      6641      6644      6647      6649
      6641      6644      6647      6653      6642      6641      6644      6645
      6642      6641      6644      6646      6642      6641      6644      6647
      6643      6641      6644      6645      6643      6641      6644      6646
      6643      6641      6644      6647      6644      6647      6649      6650
      6644      6647      6649      6651      6644      6647      6649      6652
      6644      6647      6653      6654      6644      6647      6653      6655
      6644      6647      6653      6656      6645      6644      6647      6648
      6645      6644      6647      6649      6645      6644      6647      6653
      6646      6644      6647      6648      6646      6644      6647      6649
      6646      6644      6647      6653      6648      6647      6649      6650
      6648      6647      6649      6651      6648      6647      6649      6652
      6648      6647      6653      6654      6648      6647      6653      6655
      6648      6647      6653      6656      6649      6647      6653      6654
      6649      6647      6653      6655      6649      6647      6653      6656
      6650      6649      6647      6653      6651      6649      6647      6653
      6652      6649      6647      6653     15559     15572     15575     15576
     15559     15572     15575     15577     15559     15572     15575     15582
     15560     15559     15564     15565     15560     15559     15564     15566
     15560     15559     15564     15567     15560     15559     15568     15569
     15560     15559     15568     15570     15560     15559     15568     15571
     15560     15559     15572     15573     15560     15559     15572     15574
     15560     15559     15572     15575     15561     15560     15559     15564
     15561     15560     15559     15568     15561     15560     15559     15572
     15562     15560     15559     15564     15562     15560     15559     15568
     15562     15560     15559     15572     15563     15560     15559     15564
     15563     15560     15559     15568     15563     15560     15559     15572
     15564     15559     15568     15569     15564     15559     15568     15570
     15564     15559     15568     15571     15564     15559     15572     15573
     15564     15559     15572     15574     15564     15559     15572     15575
     15565     15564     15559     15568     15565     15564     15559     15572
     15566     15564     15559     15568     15566     15564     15559     15572
     15567     15564     15559     15568     15567     15564     15559     15572
     15568     15559     15572     15573     15568     15559     15572     15574
     15568     15559     15572     15575     15569     15568     15559     15572
     15570     15568     15559     15572     15571     15568     15559     15572
     15572     15575     15582     15578     15573     15572     15575     15576
     15573     15572     15575     15577     15573     15572     15575     15582
     15574     15572     15575     15576     15574     15572     15575     15577
     15574     15572     15575     15582     15575     15582     15578     15579
     15575     15582     15578     15580     15575     15582     15578     15581
     15576     15575     15582     15578     15577     15575     15582     15578
     15578     15581     15583     15584     15578     15581     15583     15585
     15578     15581     15583     15588     15579     15578     15581     15583
     15580     15578     15581     15583     15581     15583     15588     15586
     15581     15583     15588     15589     15581     15583     15588     15590
     15582     15578     15581     15583     15583     15588     15586     15587
     15583     15588     15586     15638     15583     15588     15590     15591
     15583     15588     15590     15592     15583     15588     15590     15594
     15584     15583     15588     15586     15584     15583     15588     15589
     15584     15583     15588     15590     15585     15583     15588     15586
     15585     15583     15588     15589     15585     15583     15588     15590
     15586     15588     15590     15591     15586     15588     15590     15592
     15586     15588     15590     15594     15586     15638     15640     15641
     15586     15638     15640     15642     15586     15638     15640     15643
     15587     15586     15588     15589     15587     15586     15588     15590
     15587     15586     15638     15639     15587     15586     15638     15640
     15588     15586     15638     15639     15588     15586     15638     15640
     15588     15590     15592     15593     15588     15590     15594     15595
     15588     15590     15594     15596     15589     15588     15586     15638
     15589     15588     15590     15591     15589     15588     15590     15592
     15589     15588     15590     15594     15590     15588     15586     15638
     15590     15594     15596     15597     15590     15594     15596     15598
     15591     15590     15592     15593     15591     15590     15594     15595
     15591     15590     15594     15596     15592     15590     15594     15595
     15592     15590     15594     15596     15593     15592     15590     15594
     15594     15596     15598     15599     15594     15596     15598     15600
     15594     15596     15598     15601     15595     15594     15596     15597
     15595     15594     15596     15598     15596     15598     15601     15602
     15596     15598     15601     15603     15596     15598     15601     15604
     15597     15596     15598     15599     15597     15596     15598     15600
     15597     15596     15598     15601     15598     15601     15604     15605
     15598     15601     15604     15606     15598     15601     15604     15607
     15599     15598     15601     15602     15599     15598     15601     15603
     15599     15598     15601     15604     15600     15598     15601     15602
     15600     15598     15601     15603     15600     15598     15601     15604
     15601     15604     15607     15608     15601     15604     15607     15609
     15601     15604     15607     15610     15602     15601     15604     15605
     15602     15601     15604     15606     15602     15601     15604     15607
     15603     15601     15604     15605     15603     15601     15604     15606
     15603     15601     15604     15607     15604     15607     15610     15611
     15604     15607     15610     15612     15604     15607     15610     15613
     15605     15604     15607     15608     15605     15604     15607     15609
     15605     15604     15607     15610     15606     15604     15607     15608
     15606     15604     15607     15609     15606     15604     15607     15610
     15607     15610     15613     15614     15607     15610     15613     15615
     15607     15610     15613     15616     15608     15607     15610     15611
     15608     15607     15610     15612     15608     15607     15610     15613
     15609     15607     15610     15611     15609     15607     15610     15612
     15609     15607     15610     15613     15610     15613     15616     15617
     15610     15613     15616     15618     15610     15613     15616     15619
     15611     15610     15613     15614     15611     15610     15613     15615
     15611     15610     15613     15616     15612     15610     15613     15614
     15612     15610     15613     15615     15612     15610     15613     15616
     15613     15616     15619     15620     15613     15616     15619     15621
     15613     15616     15619     15622     15614     15613     15616     15617
     15614     15613     15616     15618     15614     15613     15616     15619
     15615     15613     15616     15617     15615     15613     15616     15618
     15615     15613     15616     15619     15616     15619     15622     15623
     15616     15619     15622     15624     15616     15619     15622     15625
     15617     15616     15619     15620     15617     15616     15619     15621
     15617     15616     15619     15622     15618     15616     15619     15620
     15618     15616     15619     15621     15618     15616     15619     15622
     15619     15622     15625     15626     15619     15622     15625     15627
     15619     15622     15625     15628     15620     15619     15622     15623
     15620     15619     15622     15624     15620     15619     15622     15625
     15621     15619     15622     15623     15621     15619     15622     15624
     15621     15619     15622     15625     15622     15625     15628     15629
     15622     15625     15628     15630     15622     15625     15628     15631
     15623     15622     15625     15626     15623     15622     15625     15627
     15623     15622     15625     15628     15624     15622     15625     15626
     15624     15622     15625     15627     15624     15622     15625     15628
     15625     15628     15631     15632     15625     15628     15631     15633
     15625     15628     15631     15634     15626     15625     15628     15629
     15626     15625     15628     15630     15626     15625     15628     15631
     15627     15625     15628     15629     15627     15625     15628     15630
     15627     15625     15628     15631     15628     15631     15634     15635
     15628     15631     15634     15636     15628     15631     15634     15637
     15629     15628     15631     15632     15629     15628     15631     15633
     15629     15628     15631     15634     15630     15628     15631     15632
     15630     15628     15631     15633     15630     15628     15631     15634
     15632     15631     15634     15635     15632     15631     15634     15636
     15632     15631     15634     15637     15633     15631     15634     15635
     15633     15631     15634     15636     15633     15631     15634     15637
     15638     15640     15643     15644     15638     15640     15643     15645
     15638     15640     15643     15646     15639     15638     15640     15641
     15639     15638     15640     15642     15639     15638     15640     15643
     15640     15643     15646     15647     15640     15643     15646     15648
     15640     15643     15646     15649     15641     15640     15643     15644
     15641     15640     15643     15645     15641     15640     15643     15646
     15642     15640     15643     15644     15642     15640     15643     15645
     15642     15640     15643     15646     15643     15646     15649     15650
     15643     15646     15649     15651     15643     15646     15649     15652
     15644     15643     15646     15647     15644     15643     15646     15648
     15644     15643     15646     15649     15645     15643     15646     15647
     15645     15643     15646     15648     15645     15643     15646     15649
     15646     15649     15652     15653     15646     15649     15652     15654
     15646     15649     15652     15655     15647     15646     15649     15650
     15647     15646     15649     15651     15647     15646     15649     15652
     15648     15646     15649     15650     15648     15646     15649     15651
     15648     15646     15649     15652     15649     15652     15655     15656
     15649     15652     15655     15657     15649     15652     15655     15658
     15650     15649     15652     15653     15650     15649     15652     15654
     15650     15649     15652     15655     15651     15649     15652     15653
     15651     15649     15652     15654     15651     15649     15652     15655
     15652     15655     15658     15659     15652     15655     15658     15660
     15652     15655     15658     15661     15653     15652     15655     15656
     15653     15652     15655     15657     15653     15652     15655     15658
     15654     15652     15655     15656     15654     15652     15655     15657
     15654     15652     15655     15658     15655     15658     15661     15662
     15655     15658     15661     15663     15656     15655     15658     15659
     15656     15655     15658     15660     15656     15655     15658     15661
     15657     15655     15658     15659     15657     15655     15658     15660
     15657     15655     15658     15661     15658     15661     15663     15664
     15658     15661     15663     15665     15659     15658     15661     15662
     15659     15658     15661     15663     15660     15658     15661     15662
     15660     15658     15661     15663     15661     15663     15665     15666
     15661     15663     15665     15667     15661     15663     15665     15668
     15662     15661     15663     15664     15662     15661     15663     15665
     15663     15665     15668     15669     15663     15665     15668     15670
     15663     15665     15668     15671     15664     15663     15665     15666
     15664     15663     15665     15667     15664     15663     15665     15668
     15665     15668     15671     15672     15665     15668     15671     15673
     15665     15668     15671     15674     15666     15665     15668     15669
     15666     15665     15668     15670     15666     15665     15668     15671
     15667     15665     15668     15669     15667     15665     15668     15670
     15667     15665     15668     15671     15668     15671     15674     15675
     15668     15671     15674     15676     15668     15671     15674     15677
     15669     15668     15671     15672     15669     15668     15671     15673
     15669     15668     15671     15674     15670     15668     15671     15672
     15670     15668     15671     15673     15670     15668     15671     15674
     15671     15674     15677     15678     15671     15674     15677     15679
     15671     15674     15677     15680     15672     15671     15674     15675
     15672     15671     15674     15676     15672     15671     15674     15677
     15673     15671     15674     15675     15673     15671     15674     15676
     15673     15671     15674     15677     15674     15677     15680     15681
     15674     15677     15680     15682     15674     15677     15680     15683
     15675     15674     15677     15678     15675     15674     15677     15679
     15675     15674     15677     15680     15676     15674     15677     15678
     15676     15674     15677     15679     15676     15674     15677     15680
     15677     15680     15683     15684     15677     15680     15683     15685
     15677     15680     15683     15686     15678     15677     15680     15681
     15678     15677     15680     15682     15678     15677     15680     15683
     15679     15677     15680     15681     15679     15677     15680     15682
     15679     15677     15680     15683     15680     15683     15686     15687
     15680     15683     15686     15688     15680     15683     15686     15689
     15681     15680     15683     15684     15681     15680     15683     15685
     15681     15680     15683     15686     15682     15680     15683     15684
     15682     15680     15683     15685     15682     15680     15683     15686
     15684     15683     15686     15687     15684     15683     15686     15688
     15684     15683     15686     15689     15685     15683     15686     15687
     15685     15683     15686     15688     15685     15683     15686     15689
     15690     15703     15706     15707     15690     15703     15706     15708
     15690     15703     15706     15713     15691     15690     15695     15696
     15691     15690     15695     15697     15691     15690     15695     15698
     15691     15690     15699     15700     15691     15690     15699     15701
     15691     15690     15699     15702     15691     15690     15703     15704
     15691     15690     15703     15705     15691     15690     15703     15706
     15692     15691     15690     15695     15692     15691     15690     15699
     15692     15691     15690     15703     15693     15691     15690     15695
     15693     15691     15690     15699     15693     15691     15690     15703
     15694     15691     15690     15695     15694     15691     15690     15699
     15694     15691     15690     15703     15695     15690     15699     15700
     15695     15690     15699     15701     15695     15690     15699     15702
     15695     15690     15703     15704     15695     15690     15703     15705
     15695     15690     15703     15706     15696     15695     15690     15699
     15696     15695     15690     15703     15697     15695     15690     15699
     15697     15695     15690     15703     15698     15695     15690     15699
     15698     15695     15690     15703     15699     15690     15703     15704
     15699     15690     15703     15705     15699     15690     15703     15706
     15700     15699     15690     15703     15701     15699     15690     15703
     15702     15699     15690     15703     15703     15706     15713     15709
     15704     15703     15706     15707     15704     15703     15706     15708
     15704     15703     15706     15713     15705     15703     15706     15707
     15705     15703     15706     15708     15705     15703     15706     15713
     15706     15713     15709     15710     15706     15713     15709     15711
     15706     15713     15709     15712     15707     15706     15713     15709
     15708     15706     15713     15709     15709     15712     15714     15715
     15709     15712     15714     15716     15709     15712     15714     15719
     15710     15709     15712     15714     15711     15709     15712     15714
     15712     15714     15719     15717     15712     15714     15719     15720
     15712     15714     15719     15721     15713     15709     15712     15714
     15714     15719     15717     15718     15714     15719     15717     15769
     15714     15719     15721     15722     15714     15719     15721     15723
     15714     15719     15721     15725     15715     15714     15719     15717
     15715     15714     15719     15720     15715     15714     15719     15721
     15716     15714     15719     15717     15716     15714     15719     15720
     15716     15714     15719     15721     15717     15719     15721     15722
     15717     15719     15721     15723     15717     15719     15721     15725
     15717     15769     15771     15772     15717     15769     15771     15773
     15717     15769     15771     15774     15718     15717     15719     15720
     15718     15717     15719     15721     15718     15717     15769     15770
     15718     15717     15769     15771     15719     15717     15769     15770
     15719     15717     15769     15771     15719     15721     15723     15724
     15719     15721     15725     15726     15719     15721     15725     15727
     15720     15719     15717     15769     15720     15719     15721     15722
     15720     15719     15721     15723     15720     15719     15721     15725
     15721     15719     15717     15769     15721     15725     15727     15728
     15721     15725     15727     15729     15722     15721     15723     15724
     15722     15721     15725     15726     15722     15721     15725     15727
     15723     15721     15725     15726     15723     15721     15725     15727
     15724     15723     15721     15725     15725     15727     15729     15730
     15725     15727     15729     15731     15725     15727     15729     15732
     15726     15725     15727     15728     15726     15725     15727     15729
     15727     15729     15732     15733     15727     15729     15732     15734
     15727     15729     15732     15735     15728     15727     15729     15730
     15728     15727     15729     15731     15728     15727     15729     15732
     15729     15732     15735     15736     15729     15732     15735     15737
     15729     15732     15735     15738     15730     15729     15732     15733
     15730     15729     15732     15734     15730     15729     15732     15735
     15731     15729     15732     15733     15731     15729     15732     15734
     15731     15729     15732     15735     15732     15735     15738     15739
     15732     15735     15738     15740     15732     15735     15738     15741
     15733     15732     15735     15736     15733     15732     15735     15737
     15733     15732     15735     15738     15734     15732     15735     15736
     15734     15732     15735     15737     15734     15732     15735     15738
     15735     15738     15741     15742     15735     15738     15741     15743
     15735     15738     15741     15744     15736     15735     15738     15739
     15736     15735     15738     15740     15736     15735     15738     15741
     15737     15735     15738     15739     15737     15735     15738     15740
     15737     15735     15738     15741     15738     15741     15744     15745
     15738     15741     15744     15746     15738     15741     15744     15747
     15739     15738     15741     15742     15739     15738     15741     15743
     15739     15738     15741     15744     15740     15738     15741     15742
     15740     15738     15741     15743     15740     15738     15741     15744
     15741     15744     15747     15748     15741     15744     15747     15749
     15741     15744     15747     15750     15742     15741     15744     15745
     15742     15741     15744     15746     15742     15741     15744     15747
     15743     15741     15744     15745     15743     15741     15744     15746
     15743     15741     15744     15747     15744     15747     15750     15751
     15744     15747     15750     15752     15744     15747     15750     15753
     15745     15744     15747     15748     15745     15744     15747     15749
     15745     15744     15747     15750     15746     15744     15747     15748
     15746     15744     15747     15749     15746     15744     15747     15750
     15747     15750     15753     15754     15747     15750     15753     15755
     15747     15750     15753     15756     15748     15747     15750     15751
     15748     15747     15750     15752     15748     15747     15750     15753
     15749     15747     15750     15751     15749     15747     15750     15752
     15749     15747     15750     15753     15750     15753     15756     15757
     15750     15753     15756     15758     15750     15753     15756     15759
     15751     15750     15753     15754     15751     15750     15753     15755
     15751     15750     15753     15756     15752     15750     15753     15754
     15752     15750     15753     15755     15752     15750     15753     15756
     15753     15756     15759     15760     15753     15756     15759     15761
     15753     15756     15759     15762     15754     15753     15756     15757
     15754     15753     15756     15758     15754     15753     15756     15759
     15755     15753     15756     15757     15755     15753     15756     15758
     15755     15753     15756     15759     15756     15759     15762     15763
     15756     15759     15762     15764     15756     15759     15762     15765
     15757     15756     15759     15760     15757     15756     15759     15761
     15757     15756     15759     15762     15758     15756     15759     15760
     15758     15756     15759     15761     15758     15756     15759     15762
     15759     15762     15765     15766     15759     15762     15765     15767
     15759     15762     15765     15768     15760     15759     15762     15763
     15760     15759     15762     15764     15760     15759     15762     15765
     15761     15759     15762     15763     15761     15759     15762     15764
     15761     15759     15762     15765     15763     15762     15765     15766
     15763     15762     15765     15767     15763     15762     15765     15768
     15764     15762     15765     15766     15764     15762     15765     15767
     15764     15762     15765     15768     15769     15771     15774     15775
     15769     15771     15774     15776     15769     15771     15774     15777
     15770     15769     15771     15772     15770     15769     15771     15773
     15770     15769     15771     15774     15771     15774     15777     15778
     15771     15774     15777     15779     15771     15774     15777     15780
     15772     15771     15774     15775     15772     15771     15774     15776
     15772     15771     15774     15777     15773     15771     15774     15775
     15773     15771     15774     15776     15773     15771     15774     15777
     15774     15777     15780     15781     15774     15777     15780     15782
     15774     15777     15780     15783     15775     15774     15777     15778
     15775     15774     15777     15779     15775     15774     15777     15780
     15776     15774     15777     15778     15776     15774     15777     15779
     15776     15774     15777     15780     15777     15780     15783     15784
     15777     15780     15783     15785     15777     15780     15783     15786
     15778     15777     15780     15781     15778     15777     15780     15782
     15778     15777     15780     15783     15779     15777     15780     15781
     15779     15777     15780     15782     15779     15777     15780     15783
     15780     15783     15786     15787     15780     15783     15786     15788
     15780     15783     15786     15789     15781     15780     15783     15784
     15781     15780     15783     15785     15781     15780     15783     15786
     15782     15780     15783     15784     15782     15780     15783     15785
     15782     15780     15783     15786     15783     15786     15789     15790
     15783     15786     15789     15791     15783     15786     15789     15792
     15784     15783     15786     15787     15784     15783     15786     15788
     15784     15783     15786     15789     15785     15783     15786     15787
     15785     15783     15786     15788     15785     15783     15786     15789
     15786     15789     15792     15793     15786     15789     15792     15794
     15787     15786     15789     15790     15787     15786     15789     15791
     15787     15786     15789     15792     15788     15786     15789     15790
     15788     15786     15789     15791     15788     15786     15789     15792
     15789     15792     15794     15795     15789     15792     15794     15796
     15790     15789     15792     15793     15790     15789     15792     15794
     15791     15789     15792     15793     15791     15789     15792     15794
     15792     15794     15796     15797     15792     15794     15796     15798
     15792     15794     15796     15799     15793     15792     15794     15795
     15793     15792     15794     15796     15794     15796     15799     15800
     15794     15796     15799     15801     15794     15796     15799     15802
     15795     15794     15796     15797     15795     15794     15796     15798
     15795     15794     15796     15799     15796     15799     15802     15803
     15796     15799     15802     15804     15796     15799     15802     15805
     15797     15796     15799     15800     15797     15796     15799     15801
     15797     15796     15799     15802     15798     15796     15799     15800
     15798     15796     15799     15801     15798     15796     15799     15802
     15799     15802     15805     15806     15799     15802     15805     15807
     15799     15802     15805     15808     15800     15799     15802     15803
     15800     15799     15802     15804     15800     15799     15802     15805
     15801     15799     15802     15803     15801     15799     15802     15804
     15801     15799     15802     15805     15802     15805     15808     15809
     15802     15805     15808     15810     15802     15805     15808     15811
     15803     15802     15805     15806     15803     15802     15805     15807
     15803     15802     15805     15808     15804     15802     15805     15806
     15804     15802     15805     15807     15804     15802     15805     15808
     15805     15808     15811     15812     15805     15808     15811     15813
     15805     15808     15811     15814     15806     15805     15808     15809
     15806     15805     15808     15810     15806     15805     15808     15811
     15807     15805     15808     15809     15807     15805     15808     15810
     15807     15805     15808     15811     15808     15811     15814     15815
     15808     15811     15814     15816     15808     15811     15814     15817
     15809     15808     15811     15812     15809     15808     15811     15813
     15809     15808     15811     15814     15810     15808     15811     15812
     15810     15808     15811     15813     15810     15808     15811     15814
     15811     15814     15817     15818     15811     15814     15817     15819
     15811     15814     15817     15820     15812     15811     15814     15815
     15812     15811     15814     15816     15812     15811     15814     15817
     15813     15811     15814     15815     15813     15811     15814     15816
     15813     15811     15814     15817     15815     15814     15817     15818
     15815     15814     15817     15819     15815     15814     15817     15820
     15816     15814     15817     15818     15816     15814     15817     15819
     15816     15814     15817     15820      6657      6661      6664      6665
      6657      6661      6664      6695      6657      6703      6700      6695
      6657      6703      6700      6701      6657      6703      6700      6702
      6658      6657      6659      6660      6658      6657      6661      6662
      6658      6657      6661      6663      6658      6657      6661      6664
      6658      6657      6703      6700      6658      6657      6703      6704
      6658      6657      6703      6705      6659      6657      6661      6662
      6659      6657      6661      6663      6659      6657      6661      6664
      6659      6657      6703      6700      6659      6657      6703      6704
      6659      6657      6703      6705      6660      6659      6657      6661
      6660      6659      6657      6703      6661      6657      6703      6700
      6661      6657      6703      6704      6661      6657      6703      6705
      6661      6664      6665      6666      6661      6664      6665      6667
      6661      6664      6695      6693      6661      6664      6695      6696
      6661      6664      6695      6700      6662      6661      6657      6703
      6662      6661      6664      6665      6662      6661      6664      6695
      6663      6661      6657      6703      6663      6661      6664      6665
      6663      6661      6664      6695      6664      6661      6657      6703
      6664      6665      6667      6668      6664      6665      6667      6669
      6664      6665      6667      6670      6664      6695      6693      6670
      6664      6695      6693      6690      6664      6695      6693      6694
      6664      6695      6696      6697      6664      6695      6696      6698
      6664      6695      6696      6699      6664      6695      6700      6701
      6664      6695      6700      6702      6664      6695      6700      6703
      6665      6664      6695      6693      6665      6664      6695      6696
      6665      6664      6695      6700      6665      6667      6670      6671
      6665      6667      6670      6672      6665      6667      6670      6693
      6666      6665      6664      6695      6666      6665      6667      6668
      6666      6665      6667      6669      6666      6665      6667      6670
      6667      6665      6664      6695      6667      6670      6672      6673
      6667      6670      6672      6674      6667      6670      6672      6682
      6667      6670      6693      6690      6667      6670      6693      6694
      6667      6670      6693      6695      6668      6667      6670      6671
      6668      6667      6670      6672      6668      6667      6670      6693
      6669      6667      6670      6671      6669      6667      6670      6672
      6669      6667      6670      6693      6670      6672      6674      6675
      6670      6672      6674      6676      6670      6672      6674      6677
      6670      6672      6682      6680      6670      6672      6682      6683
      6670      6672      6682      6687      6670      6693      6690      6687
      6670      6693      6690      6691      6670      6693      6690      6692
      6670      6693      6695      6696      6670      6693      6695      6700
      6671      6670      6672      6673      6671      6670      6672      6674
      6671      6670      6672      6682      6671      6670      6693      6690
      6671      6670      6693      6694      6671      6670      6693      6695
      6672      6670      6693      6690      6672      6670      6693      6694
      6672      6670      6693      6695      6672      6674      6677      6678
      6672      6674      6677      6679      6672      6674      6677      6680
      6672      6682      6680      6677      6672      6682      6680      6681
      6672      6682      6680      6706      6672      6682      6683      6684
      6672      6682      6683      6685      6672      6682      6683      6686
      6672      6682      6687      6688      6672      6682      6687      6689
      6672      6682      6687      6690      6673      6672      6670      6693
      6673      6672      6674      6675      6673      6672      6674      6676
      6673      6672      6674      6677      6673      6672      6682      6680
      6673      6672      6682      6683      6673      6672      6682      6687
      6674      6672      6670      6693      6674      6672      6682      6680
      6674      6672      6682      6683      6674      6672      6682      6687
      6674      6677      6680      6681      6674      6677      6680      6682
      6674      6677      6680      6706      6675      6674      6672      6682
      6675      6674      6677      6678      6675      6674      6677      6679
      6675      6674      6677      6680      6676      6674      6672      6682
      6676      6674      6677      6678      6676      6674      6677      6679
      6676      6674      6677      6680      6677      6674      6672      6682
      6677      6680      6682      6683      6677      6680      6682      6687
      6677      6680      6706      6707      6677      6680      6706      6708
      6677      6680      6706      6712      6678      6677      6680      6681
      6678      6677      6680      6682      6678      6677      6680      6706
      6679      6677      6680      6681      6679      6677      6680      6682
      6679      6677      6680      6706      6680      6682      6683      6684
      6680      6682      6683      6685      6680      6682      6683      6686
      6680      6682      6687      6688      6680      6682      6687      6689
      6680      6682      6687      6690      6680      6706      6708      6709
      6680      6706      6708      6710      6680      6706      6708      6711
      6680      6706      6712      6713      6680      6706      6712      6714
      6680      6706      6712      6715      6681      6680      6682      6683
      6681      6680      6682      6687      6681      6680      6706      6707
      6681      6680      6706      6708      6681      6680      6706      6712
      6682      6672      6670      6693      6682      6680      6706      6707
      6682      6680      6706      6708      6682      6680      6706      6712
      6682      6687      6690      6691      6682      6687      6690      6692
      6682      6687      6690      6693      6683      6682      6680      6706
      6683      6682      6687      6688      6683      6682      6687      6689
      6683      6682      6687      6690      6684      6683      6682      6687
      6685      6683      6682      6687      6686      6683      6682      6687
      6687      6682      6680      6706      6687      6690      6693      6694
      6687      6690      6693      6695      6688      6687      6690      6691
      6688      6687      6690      6692      6688      6687      6690      6693
      6689      6687      6690      6691      6689      6687      6690      6692
      6689      6687      6690      6693      6690      6693      6695      6696
      6690      6693      6695      6700      6691      6690      6693      6694
      6691      6690      6693      6695      6692      6690      6693      6694
      6692      6690      6693      6695      6693      6695      6696      6697
      6693      6695      6696      6698      6693      6695      6696      6699
      6693      6695      6700      6701      6693      6695      6700      6702
      6693      6695      6700      6703      6694      6693      6695      6696
      6694      6693      6695      6700      6695      6700      6703      6704
      6695      6700      6703      6705      6696      6695      6700      6701
      6696      6695      6700      6702      6696      6695      6700      6703
      6697      6696      6695      6700      6698      6696      6695      6700
      6699      6696      6695      6700      6701      6700      6703      6704
      6701      6700      6703      6705      6702      6700      6703      6704
      6702      6700      6703      6705      6706      6712      6715      6716
      6706      6712      6715      6717      6706      6712      6715      6718
      6707      6706      6708      6709      6707      6706      6708      6710
      6707      6706      6708      6711      6707      6706      6712      6713
      6707      6706      6712      6714      6707      6706      6712      6715
      6708      6706      6712      6713      6708      6706      6712      6714
      6708      6706      6712      6715      6709      6708      6706      6712
      6710      6708      6706      6712      6711      6708      6706      6712
      6712      6715      6718      6719      6712      6715      6718      6720
      6712      6715      6718      6721      6713      6712      6715      6716
      6713      6712      6715      6717      6713      6712      6715      6718
      6714      6712      6715      6716      6714      6712      6715      6717
      6714      6712      6715      6718      6715      6718      6721      6722
      6715      6718      6721      6723      6715      6718      6721      6727
      6716      6715      6718      6719      6716      6715      6718      6720
      6716      6715      6718      6721      6717      6715      6718      6719
      6717      6715      6718      6720      6717      6715      6718      6721
      6718      6721      6723      6724      6718      6721      6723      6725
      6718      6721      6723      6726      6718      6721      6727      6728
      6718      6721      6727      6729      6718      6721      6727      6730
      6719      6718      6721      6722      6719      6718      6721      6723
      6719      6718      6721      6727      6720      6718      6721      6722
      6720      6718      6721      6723      6720      6718      6721      6727
      6722      6721      6723      6724      6722      6721      6723      6725
      6722      6721      6723      6726      6722      6721      6727      6728
      6722      6721      6727      6729      6722      6721      6727      6730
      6723      6721      6727      6728      6723      6721      6727      6729
      6723      6721      6727      6730      6724      6723      6721      6727
      6725      6723      6721      6727      6726      6723      6721      6727
      9917      9918      9933      9934      9917      9918      9933      9935
      9917      9918      9933      9939      9918      9917      9921      9922
      9918      9917      9921      9923      9918      9917      9921      9924
      9918      9917      9925      9926      9918      9917      9925      9927
      9918      9917      9925      9928      9918      9917      9929      9930
      9918      9917      9929      9931      9918      9917      9929      9932
      9918      9933      9939      9936      9919      9918      9917      9921
      9919      9918      9917      9925      9919      9918      9917      9929
      9919      9918      9933      9934      9919      9918      9933      9935
      9919      9918      9933      9939      9920      9918      9917      9921
      9920      9918      9917      9925      9920      9918      9917      9929
      9920      9918      9933      9934      9920      9918      9933      9935
      9920      9918      9933      9939      9921      9917      9918      9933
      9921      9917      9925      9926      9921      9917      9925      9927
      9921      9917      9925      9928      9921      9917      9929      9930
      9921      9917      9929      9931      9921      9917      9929      9932
      9922      9921      9917      9925      9922      9921      9917      9929
      9923      9921      9917      9925      9923      9921      9917      9929
      9924      9921      9917      9925      9924      9921      9917      9929
      9925      9917      9918      9933      9925      9917      9929      9930
      9925      9917      9929      9931      9925      9917      9929      9932
      9926      9925      9917      9929      9927      9925      9917      9929
      9928      9925      9917      9929      9929      9917      9918      9933
      9933      9939      9936      9937      9933      9939      9936      9938
      9933      9939      9936      9940      9934      9933      9939      9936
      9935      9933      9939      9936      9936      9940      9941      9942
      9936      9940      9941      9943      9936      9940      9941      9944
      9937      9936      9940      9941      9938      9936      9940      9941
      9939      9936      9940      9941      9940      9941      9944      9945
      9940      9941      9944      9946      9940      9941      9944      9952
      9941      9944      9946      9947      9941      9944      9952      9953
      9941      9944      9952      9954      9941      9944      9952      9955
      9942      9941      9944      9945      9942      9941      9944      9946
      9942      9941      9944      9952      9943      9941      9944      9945
      9943      9941      9944      9946      9943      9941      9944      9952
      9944      9946      9947      9948      9944      9946      9947      9949
      9944      9952      9955      9956      9945      9944      9946      9947
      9945      9944      9952      9953      9945      9944      9952      9954
      9945      9944      9952      9955      9946      9944      9952      9953
      9946      9944      9952      9954      9946      9944      9952      9955
      9946      9947      9949      9950      9946      9947      9949      9951
      9946      9947      9949      9961      9947      9946      9944      9952
      9947      9949      9961      9962      9947      9949      9961      9963
      9947      9949      9961      9964      9948      9947      9949      9950
      9948      9947      9949      9951      9948      9947      9949      9961
      9949      9961      9964      9965      9949      9961      9964      9966
      9949      9961      9964      9967      9950      9949      9961      9962
      9950      9949      9961      9963      9950      9949      9961      9964
      9951      9949      9961      9962      9951      9949      9961      9963
      9951      9949      9961      9964      9952      9955      9956      9957
      9952      9955      9956      9958      9953      9952      9955      9956
      9954      9952      9955      9956      9955      9956      9958      9959
      9955      9956      9958      9960      9955      9956      9958     10008
      9956      9958     10008     10009      9956      9958     10008     10010
      9956      9958     10008     10011      9957      9956      9958      9959
      9957      9956      9958      9960      9957      9956      9958     10008
      9958     10008     10011     10012      9958     10008     10011     10013
      9958     10008     10011     10014      9959      9958     10008     10009
      9959      9958     10008     10010      9959      9958     10008     10011
      9960      9958     10008     10009      9960      9958     10008     10010
      9960      9958     10008     10011      9961      9964      9967      9968
      9961      9964      9967      9969      9962      9961      9964      9965
      9962      9961      9964      9966      9962      9961      9964      9967
      9963      9961      9964      9965      9963      9961      9964      9966
      9963      9961      9964      9967      9964      9967      9969      9970
      9964      9967      9969      9971      9965      9964      9967      9968
      9965      9964      9967      9969      9966      9964      9967      9968
      9966      9964      9967      9969      9967      9969      9971      9972
      9967      9969      9971      9973      9967      9969      9971      9974
      9968      9967      9969      9970      9968      9967      9969      9971
      9969      9971      9974      9975      9969      9971      9974      9976
      9970      9969      9971      9972      9970      9969      9971      9973
      9970      9969      9971      9974      9971      9974      9976      9977
      9971      9974      9976      9978      9972      9971      9974      9975
      9972      9971      9974      9976      9973      9971      9974      9975
      9973      9971      9974      9976      9974      9976      9978      9979
      9974      9976      9978      9980      9974      9976      9978      9981
      9975      9974      9976      9977      9975      9974      9976      9978
      9976      9978      9981      9982      9976      9978      9981      9983
      9977      9976      9978      9979      9977      9976      9978      9980
      9977      9976      9978      9981      9978      9981      9983      9984
      9978      9981      9983      9985      9979      9978      9981      9982
      9979      9978      9981      9983      9980      9978      9981      9982
      9980      9978      9981      9983      9981      9983      9985      9986
      9981      9983      9985      9987      9981      9983      9985      9988
      9982      9981      9983      9984      9982      9981      9983      9985
      9983      9985      9988      9989      9983      9985      9988      9990
      9984      9983      9985      9986      9984      9983      9985      9987
      9984      9983      9985      9988      9985      9988      9990      9991
      9985      9988      9990      9992      9986      9985      9988      9989
      9986      9985      9988      9990      9987      9985      9988      9989
      9987      9985      9988      9990      9988      9990      9992      9993
      9988      9990      9992      9994      9988      9990      9992      9995
      9989      9988      9990      9991      9989      9988      9990      9992
      9990      9992      9995      9996      9990      9992      9995      9997
      9990      9992      9995      9998      9991      9990      9992      9993
      9991      9990      9992      9994      9991      9990      9992      9995
      9992      9995      9998      9999      9992      9995      9998     10000
      9992      9995      9998     10001      9993      9992      9995      9996
      9993      9992      9995      9997      9993      9992      9995      9998
      9994      9992      9995      9996      9994      9992      9995      9997
      9994      9992      9995      9998      9995      9998     10001     10002
      9995      9998     10001     10003      9995      9998     10001     10004
      9996      9995      9998      9999      9996      9995      9998     10000
      9996      9995      9998     10001      9997      9995      9998      9999
      9997      9995      9998     10000      9997      9995      9998     10001
      9998     10001     10004     10005      9998     10001     10004     10006
      9998     10001     10004     10007      9999      9998     10001     10002
      9999      9998     10001     10003      9999      9998     10001     10004
     10000      9998     10001     10002     10000      9998     10001     10003
     10000      9998     10001     10004     10002     10001     10004     10005
     10002     10001     10004     10006     10002     10001     10004     10007
     10003     10001     10004     10005     10003     10001     10004     10006
     10003     10001     10004     10007     10008     10011     10014     10015
     10008     10011     10014     10016     10008     10011     10014     10017
     10009     10008     10011     10012     10009     10008     10011     10013
     10009     10008     10011     10014     10010     10008     10011     10012
     10010     10008     10011     10013     10010     10008     10011     10014
     10011     10014     10017     10018     10011     10014     10017     10019
     10011     10014     10017     10020     10012     10011     10014     10015
     10012     10011     10014     10016     10012     10011     10014     10017
     10013     10011     10014     10015     10013     10011     10014     10016
     10013     10011     10014     10017     10014     10017     10020     10021
     10014     10017     10020     10022     10014     10017     10020     10023
     10015     10014     10017     10018     10015     10014     10017     10019
     10015     10014     10017     10020     10016     10014     10017     10018
     10016     10014     10017     10019     10016     10014     10017     10020
     10017     10020     10023     10024     10017     10020     10023     10025
     10017     10020     10023     10026     10018     10017     10020     10021
     10018     10017     10020     10022     10018     10017     10020     10023
     10019     10017     10020     10021     10019     10017     10020     10022
     10019     10017     10020     10023     10020     10023     10026     10027
     10020     10023     10026     10028     10020     10023     10026     10029
     10021     10020     10023     10024     10021     10020     10023     10025
     10021     10020     10023     10026     10022     10020     10023     10024
     10022     10020     10023     10025     10022     10020     10023     10026
     10023     10026     10029     10030     10023     10026     10029     10031
     10023     10026     10029     10032     10024     10023     10026     10027
     10024     10023     10026     10028     10024     10023     10026     10029
     10025     10023     10026     10027     10025     10023     10026     10028
     10025     10023     10026     10029     10026     10029     10032     10033
     10026     10029     10032     10034     10026     10029     10032     10035
     10027     10026     10029     10030     10027     10026     10029     10031
     10027     10026     10029     10032     10028     10026     10029     10030
     10028     10026     10029     10031     10028     10026     10029     10032
     10029     10032     10035     10036     10029     10032     10035     10037
     10029     10032     10035     10038     10030     10029     10032     10033
     10030     10029     10032     10034     10030     10029     10032     10035
     10031     10029     10032     10033     10031     10029     10032     10034
     10031     10029     10032     10035     10032     10035     10038     10039
     10032     10035     10038     10040     10032     10035     10038     10041
     10033     10032     10035     10036     10033     10032     10035     10037
     10033     10032     10035     10038     10034     10032     10035     10036
     10034     10032     10035     10037     10034     10032     10035     10038
     10035     10038     10041     10042     10035     10038     10041     10043
     10035     10038     10041     10044     10036     10035     10038     10039
     10036     10035     10038     10040     10036     10035     10038     10041
     10037     10035     10038     10039     10037     10035     10038     10040
     10037     10035     10038     10041     10038     10041     10044     10045
     10038     10041     10044     10046     10038     10041     10044     10047
     10039     10038     10041     10042     10039     10038     10041     10043
     10039     10038     10041     10044     10040     10038     10041     10042
     10040     10038     10041     10043     10040     10038     10041     10044
     10041     10044     10047     10048     10041     10044     10047     10049
     10041     10044     10047     10050     10042     10041     10044     10045
     10042     10041     10044     10046     10042     10041     10044     10047
     10043     10041     10044     10045     10043     10041     10044     10046
     10043     10041     10044     10047     10044     10047     10050     10051
     10044     10047     10050     10052     10044     10047     10050     10053
     10045     10044     10047     10048     10045     10044     10047     10049
     10045     10044     10047     10050     10046     10044     10047     10048
     10046     10044     10047     10049     10046     10044     10047     10050
     10047     10050     10053     10054     10047     10050     10053     10055
     10047     10050     10053     10056     10048     10047     10050     10051
     10048     10047     10050     10052     10048     10047     10050     10053
     10049     10047     10050     10051     10049     10047     10050     10052
     10049     10047     10050     10053     10051     10050     10053     10054
     10051     10050     10053     10055     10051     10050     10053     10056
     10052     10050     10053     10054     10052     10050     10053     10055
     10052     10050     10053     10056      6731      6735      6738      6739
      6731      6735      6738      6769      6731      6777      6774      6769
      6731      6777      6774      6775      6731      6777      6774      6776
      6732      6731      6733      6734      6732      6731      6735      6736
      6732      6731      6735      6737      6732      6731      6735      6738
      6732      6731      6777      6774      6732      6731      6777      6778
      6732      6731      6777      6779      6733      6731      6735      6736
      6733      6731      6735      6737      6733      6731      6735      6738
      6733      6731      6777      6774      6733      6731      6777      6778
      6733      6731      6777      6779      6734      6733      6731      6735
      6734      6733      6731      6777      6735      6731      6777      6774
      6735      6731      6777      6778      6735      6731      6777      6779
      6735      6738      6739      6740      6735      6738      6739      6741
      6735      6738      6769      6767      6735      6738      6769      6770
      6735      6738      6769      6774      6736      6735      6731      6777
      6736      6735      6738      6739      6736      6735      6738      6769
      6737      6735      6731      6777      6737      6735      6738      6739
      6737      6735      6738      6769      6738      6735      6731      6777
      6738      6739      6741      6742      6738      6739      6741      6743
      6738      6739      6741      6744      6738      6769      6767      6744
      6738      6769      6767      6764      6738      6769      6767      6768
      6738      6769      6770      6771      6738      6769      6770      6772
      6738      6769      6770      6773      6738      6769      6774      6775
      6738      6769      6774      6776      6738      6769      6774      6777
      6739      6738      6769      6767      6739      6738      6769      6770
      6739      6738      6769      6774      6739      6741      6744      6745
      6739      6741      6744      6746      6739      6741      6744      6767
      6740      6739      6738      6769      6740      6739      6741      6742
      6740      6739      6741      6743      6740      6739      6741      6744
      6741      6739      6738      6769      6741      6744      6746      6747
      6741      6744      6746      6748      6741      6744      6746      6756
      6741      6744      6767      6764      6741      6744      6767      6768
      6741      6744      6767      6769      6742      6741      6744      6745
      6742      6741      6744      6746      6742      6741      6744      6767
      6743      6741      6744      6745      6743      6741      6744      6746
      6743      6741      6744      6767      6744      6746      6748      6749
      6744      6746      6748      6750      6744      6746      6748      6751
      6744      6746      6756      6754      6744      6746      6756      6757
      6744      6746      6756      6761      6744      6767      6764      6761
      6744      6767      6764      6765      6744      6767      6764      6766
      6744      6767      6769      6770      6744      6767      6769      6774
      6745      6744      6746      6747      6745      6744      6746      6748
      6745      6744      6746      6756      6745      6744      6767      6764
      6745      6744      6767      6768      6745      6744      6767      6769
      6746      6744      6767      6764      6746      6744      6767      6768
      6746      6744      6767      6769      6746      6748      6751      6752
      6746      6748      6751      6753      6746      6748      6751      6754
      6746      6756      6754      6751      6746      6756      6754      6755
      6746      6756      6754      6780      6746      6756      6757      6758
      6746      6756      6757      6759      6746      6756      6757      6760
      6746      6756      6761      6762      6746      6756      6761      6763
      6746      6756      6761      6764      6747      6746      6744      6767
      6747      6746      6748      6749      6747      6746      6748      6750
      6747      6746      6748      6751      6747      6746      6756      6754
      6747      6746      6756      6757      6747      6746      6756      6761
      6748      6746      6744      6767      6748      6746      6756      6754
      6748      6746      6756      6757      6748      6746      6756      6761
      6748      6751      6754      6755      6748      6751      6754      6756
      6748      6751      6754      6780      6749      6748      6746      6756
      6749      6748      6751      6752      6749      6748      6751      6753
      6749      6748      6751      6754      6750      6748      6746      6756
      6750      6748      6751      6752      6750      6748      6751      6753
      6750      6748      6751      6754      6751      6748      6746      6756
      6751      6754      6756      6757      6751      6754      6756      6761
      6751      6754      6780      6781      6751      6754      6780      6782
      6751      6754      6780      6786      6752      6751      6754      6755
      6752      6751      6754      6756      6752      6751      6754      6780
      6753      6751      6754      6755      6753      6751      6754      6756
      6753      6751      6754      6780      6754      6756      6757      6758
      6754      6756      6757      6759      6754      6756      6757      6760
      6754      6756      6761      6762      6754      6756      6761      6763
      6754      6756      6761      6764      6754      6780      6782      6783
      6754      6780      6782      6784      6754      6780      6782      6785
      6754      6780      6786      6787      6754      6780      6786      6788
      6754      6780      6786      6789      6755      6754      6756      6757
      6755      6754      6756      6761      6755      6754      6780      6781
      6755      6754      6780      6782      6755      6754      6780      6786
      6756      6746      6744      6767      6756      6754      6780      6781
      6756      6754      6780      6782      6756      6754      6780      6786
      6756      6761      6764      6765      6756      6761      6764      6766
      6756      6761      6764      6767      6757      6756      6754      6780
      6757      6756      6761      6762      6757      6756      6761      6763
      6757      6756      6761      6764      6758      6757      6756      6761
      6759      6757      6756      6761      6760      6757      6756      6761
      6761      6756      6754      6780      6761      6764      6767      6768
      6761      6764      6767      6769      6762      6761      6764      6765
      6762      6761      6764      6766      6762      6761      6764      6767
      6763      6761      6764      6765      6763      6761      6764      6766
      6763      6761      6764      6767      6764      6767      6769      6770
      6764      6767      6769      6774      6765      6764      6767      6768
      6765      6764      6767      6769      6766      6764      6767      6768
      6766      6764      6767      6769      6767      6769      6770      6771
      6767      6769      6770      6772      6767      6769      6770      6773
      6767      6769      6774      6775      6767      6769      6774      6776
      6767      6769      6774      6777      6768      6767      6769      6770
      6768      6767      6769      6774      6769      6774      6777      6778
      6769      6774      6777      6779      6770      6769      6774      6775
      6770      6769      6774      6776      6770      6769      6774      6777
      6771      6770      6769      6774      6772      6770      6769      6774
      6773      6770      6769      6774      6775      6774      6777      6778
      6775      6774      6777      6779      6776      6774      6777      6778
      6776      6774      6777      6779      6780      6786      6789      6790
      6780      6786      6789      6791      6780      6786      6789      6792
      6781      6780      6782      6783      6781      6780      6782      6784
      6781      6780      6782      6785      6781      6780      6786      6787
      6781      6780      6786      6788      6781      6780      6786      6789
      6782      6780      6786      6787      6782      6780      6786      6788
      6782      6780      6786      6789      6783      6782      6780      6786
      6784      6782      6780      6786      6785      6782      6780      6786
      6786      6789      6792      6793      6786      6789      6792      6794
      6786      6789      6792      6795      6787      6786      6789      6790
      6787      6786      6789      6791      6787      6786      6789      6792
      6788      6786      6789      6790      6788      6786      6789      6791
      6788      6786      6789      6792      6789      6792      6795      6796
      6789      6792      6795      6797      6789      6792      6795      6801
      6790      6789      6792      6793      6790      6789      6792      6794
      6790      6789      6792      6795      6791      6789      6792      6793
      6791      6789      6792      6794      6791      6789      6792      6795
      6792      6795      6797      6798      6792      6795      6797      6799
      6792      6795      6797      6800      6792      6795      6801      6802
      6792      6795      6801      6803      6792      6795      6801      6804
      6793      6792      6795      6796      6793      6792      6795      6797
      6793      6792      6795      6801      6794      6792      6795      6796
      6794      6792      6795      6797      6794      6792      6795      6801
      6796      6795      6797      6798      6796      6795      6797      6799
      6796      6795      6797      6800      6796      6795      6801      6802
      6796      6795      6801      6803      6796      6795      6801      6804
      6797      6795      6801      6802      6797      6795      6801      6803
      6797      6795      6801      6804      6798      6797      6795      6801
      6799      6797      6795      6801      6800      6797      6795      6801

       272 !NIMPHI: impropers
        24        23        26        25        33        32        35        34
      6826      6825      6828      6827      6835      6834      6837      6836
      8407      8406      8409      8408      8416      8415      8418      8417
     10136     10138     10084     10137     10084     10136     10086     10085
     10267     10269     10215     10268     10215     10267     10217     10216
      6957      6956      6959      6958      6966      6965      6968      6967
     10398     10400     10346     10399     10346     10398     10348     10347
     10529     10531     10477     10530     10477     10529     10479     10478
     10660     10662     10608     10661     10608     10660     10610     10609
      7088      7087      7090      7089      7097      7096      7099      7098
     15842     15841     15844     15843     15851     15850     15853     15852
      7219      7218      7221      7220      7228      7227      7230      7229
     15973     15972     15975     15974     15982     15981     15984     15983
       157       156       159       158       166       165       168       167
       290       289       292       291       299       298       301       300
       423       422       425       424       432       431       434       433
     16104     16103     16106     16105     16113     16112     16115     16114
     16235     16234     16237     16236     16244     16243     16246     16245
     16366     16365     16368     16367     16375     16374     16377     16376
     16497     16496     16499     16498     16506     16505     16508     16507
     19519     19518     19521     19520     19528     19527     19530     19529
     16628     16627     16630     16629     16637     16636     16639     16638
       556       555       558       557       565       564       567       566
     16759     16758     16761     16760     16768     16767     16770     16769
     21175     21174     21177     21176     21184     21183     21186     21185
     10791     10793     10739     10792     10739     10791     10741     10740
     10922     10924     10870     10923     10870     10922     10872     10871
       689       688       691       690       698       697       700       699
     11053     11055     11001     11054     11001     11053     11003     11002
     19657     19656     19659     19658     19666     19665     19668     19667
     11184     11186     11132     11185     11132     11184     11134     11133
     11315     11317     11263     11316     11263     11315     11265     11264
      7350      7349      7352      7351      7359      7358      7361      7360
     16890     16889     16892     16891     16899     16898     16901     16900
     11446     11448     11394     11447     11394     11446     11396     11395
     11577     11579     11525     11578     11525     11577     11527     11526
     11708     11710     11656     11709     11656     11708     11658     11657
     11839     11841     11787     11840     11787     11839     11789     11788
     19795     19794     19797     19796     19804     19803     19806     19805
     19933     19932     19935     19934     19942     19941     19944     19943
     21714     21713     21716     21715     21723     21722     21725     21724
     11970     11972     11918     11971     11918     11970     11920     11919
       822       821       824       823       831       830       833       832
     17021     17020     17023     17022     17030     17029     17032     17031
     21309     21308     21311     21310     21318     21317     21320     21319
     12101     12103     12049     12102     12049     12101     12051     12050
     12232     12234     12180     12233     12180     12232     12182     12181
     12363     12365     12311     12364     12311     12363     12313     12312
      8547      8546      8549      8548      8556      8555      8558      8557
     12494     12496     12442     12495     12442     12494     12444     12443
     12625     12627     12573     12626     12573     12625     12575     12574
       955       954       957       956       964       963       966       965
     20071     20070     20073     20072     20080     20079     20082     20081
     21857     21856     21859     21858     21866     21865     21868     21867
     12756     12758     12704     12757     12704     12756     12706     12705
     17152     17151     17154     17153     17161     17160     17163     17162
     17283     17282     17285     17284     17292     17291     17294     17293
     20209     20208     20211     20210     20218     20217     20220     20219
      8687      8686      8689      8688      8696      8695      8698      8697
     17414     17413     17416     17415     17423     17422     17425     17424
      1088      1087      1090      1089      1097      1096      1099      1098
     12887     12889     12835     12888     12835     12887     12837     12836
     17545     17544     17547     17546     17554     17553     17556     17555
      7481      7480      7483      7482      7490      7489      7492      7491
      8827      8826      8829      8828      8836      8835      8838      8837
      8967      8966      8969      8968      8976      8975      8978      8977
      9107      9106      9109      9108      9116      9115      9118      9117
      1221      1220      1223      1222      1230      1229      1232      1231
     13018     13020     12966     13019     12966     13018     12968     12967
      1354      1353      1356      1355      1363      1362      1365      1364
      7612      7611      7614      7613      7621      7620      7623      7622
     22000     21999     22002     22001     22009     22008     22011     22010
      1487      1486      1489      1488      1496      1495      1498      1497
     13149     13151     13097     13150     13097     13149     13099     13098
      7743      7742      7745      7744      7752      7751      7754      7753
     13280     13282     13228     13281     13228     13280     13230     13229
     20347     20346     20349     20348     20356     20355     20358     20357
      9247      9246      9249      9248      9256      9255      9258      9257
     17676     17675     17678     17677     17685     17684     17687     17686
      9387      9386      9389      9388      9396      9395      9398      9397
     20485     20484     20487     20486     20494     20493     20496     20495
      1620      1619      1622      1621      1629      1628      1631      1630
      7874      7873      7876      7875      7883      7882      7885      7884
     13411     13413     13359     13412     13359     13411     13361     13360
     13542     13544     13490     13543     13490     13542     13492     13491
      1753      1752      1755      1754      1762      1761      1764      1763
     13673     13675     13621     13674     13621     13673     13623     13622
     13804     13806     13752     13805     13752     13804     13754     13753
     17807     17806     17809     17808     17816     17815     17818     17817
      9527      9526      9529      9528      9536      9535      9538      9537
     13935     13937     13883     13936     13883     13935     13885     13884
      1886      1885      1888      1887      1895      1894      1897      1896
      2019      2018      2021      2020      2028      2027      2030      2029
     14066     14068     14014     14067     14014     14066     14016     14015
     17938     17937     17940     17939     17947     17946     17949     17948
     14197     14199     14145     14198     14145     14197     14147     14146
     14328     14330     14276     14329     14276     14328     14278     14277
     20623     20622     20625     20624     20632     20631     20634     20633
     14459     14461     14407     14460     14407     14459     14409     14408
     14590     14592     14538     14591     14538     14590     14540     14539
      2152      2151      2154      2153      2161      2160      2163      2162
     14721     14723     14669     14722     14669     14721     14671     14670
     18069     18068     18071     18070     18078     18077     18080     18079
     20761     20760     20763     20762     20770     20769     20772     20771
     14852     14854     14800     14853     14800     14852     14802     14801
     18200     18199     18202     18201     18209     18208     18211     18210
      8005      8004      8007      8006      8014      8013      8016      8015
     21443     21442     21445     21444     21452     21451     21454     21453
     18331     18330     18333     18332     18340     18339     18342     18341
      9667      9666      9669      9668      9676      9675      9678      9677
      2285      2284      2287      2286      2294      2293      2296      2295
     22143     22142     22145     22144     22152     22151     22154     22153
     18462     18461     18464     18463     18471     18470     18473     18472
     18593     18592     18595     18594     18602     18601     18604     18603
     14983     14985     14931     14984     14931     14983     14933     14932
     15114     15116     15062     15115     15062     15114     15064     15063
     18724     18723     18726     18725     18733     18732     18735     18734
     21577     21576     21579     21578     21586     21585     21588     21587
      9807      9806      9809      9808      9816      9815      9818      9817
      2418      2417      2420      2419      2427      2426      2429      2428
     15245     15247     15193     15246     15193     15245     15195     15194
      2551      2550      2553      2552      2560      2559      2562      2561
     18855     18854     18857     18856     18864     18863     18866     18865
     20899     20898     20901     20900     20908     20907     20910     20909
     18986     18985     18988     18987     18995     18994     18997     18996
     19117     19116     19119     19118     19126     19125     19128     19127
     21037     21036     21039     21038     21046     21045     21048     21047
     19248     19247     19250     19249     19257     19256     19259     19258
      8136      8135      8138      8137      8145      8144      8147      8146
      8267      8266      8269      8268      8276      8275      8278      8277
     15376     15378     15324     15377     15324     15376     15326     15325
     19379     19378     19381     19380     19388     19387     19390     19389
     15507     15509     15455     15508     15455     15507     15457     15456
     15638     15640     15586     15639     15586     15638     15588     15587
     15769     15771     15717     15770     15717     15769     15719     15718
      9947      9946      9949      9948      9956      9955      9958      9957

         0 !NDON: donors


         0 !NACC: acceptors


         0 !NNB

         0         0         0         0         0         0         0         0
         0         0         0         0         0         0         0         0
         0         0         0         0         0         0         0         0
         0         0         0         0         0         0         0         0
         0         0         0         0         0         0         0         0
         0         0         0         0         0         0         0         0
         0         0         0         0         0         0         0         0
         0         0         0         0         0         0         0         0
         0         0         0         0         0         0         0         0
         0         0         0         0         0         0         0         0
         0         0         0         0         0         0         0         0
         0         0         0         0         0         0         0         0
         0         0         0         0         0         0         0         0
         0         0         0         0         0         0         0         0
         0         0         0         0         0         0         0         0
         0         0         0         0         0         0         0         0
         0         0         0         0         0         0         0         0
         0         0         0         0         0         0         0         0
         0         0         0         0         0         0         0         0
         0         0         0         0         0         0         0         0
         0         0         0         0         0         0         0         0
         0         0         0         0         0         0         0         0
         0         0         0         0         0         0         0         0
         0         0         0         0         0         0         0         0
         0         0         0         0         0         0         0         0
         0         0         0         0         0         0         0         0
         0         0         0         0         0         0         0         0
         0         0         0         0         0         0         0         0
         0         0         0         0         0         0         0         0
         0         0         0         0         0         0         0         0
         0         0         0         0         0         0         0         0
         0         0         0         0         0         0         0         0
         0         0         0         0         0         0         0         0
         0         0         0         0         0         0         0         0
         0         0         0         0         0         0         0         0
         0         0         0         0         0         0         0         0
         0         0         0         0         0         0         0         0
         0         0         0         0         0         0         0         0
         0         0         0         0         0         0         0         0
         0         0         0         0         0         0         0         0
         0         0         0         0         0         0         0         0
         0         0         0         0         0         0         0         0
         0         0         0         0         0         0         0         0
         0         0         0         0         0         0         0         0
         0         0         0         0         0         0         0         0
         0         0         0         0         0         0         0         0
         0         0         0         0         0         0         0         0
         0         0         0         0         0         0         0         0
         0         0         0         0         0         0         0         0
         0         0         0         0         0         0         0         0
         0         0         0         0         0         0         0         0
         0         0         0         0         0         0         0         0
         0         0         0         0         0         0         0         0
         0         0         0         0         0         0         0         0
         0         0         0         0         0         0         0         0
         0         0         0         0         0         0         0         0
         0         0         0         0         0         0         0         0
         0         0         0         0         0         0         0         0
         0         0         0         0         0         0         0         0
         0         0         0         0         0         0         0         0
         0         0         0         0         0         0         0         0
         0         0         0         0         0         0         0         0
         0         0         0         0         0         0         0         0
         0         0         0         0         0         0         0         0
         0         0         0         0         0         0         0         0
         0         0         0         0         0         0         0         0
         0         0         0         0         0         0         0         0
         0         0         0         0         0         0         0         0
         0         0         0         0         0         0         0         0
         0         0         0         0         0         0         0         0
         0         0         0         0         0         0         0         0
         0         0         0         0         0         0         0         0
         0         0         0         0         0         0         0         0
         0         0         0         0         0         0         0         0
         0         0         0         0         0         0         0         0
         0         0         0         0         0         0         0         0
         0         0         0         0         0         0         0         0
         0         0         0         0         0         0         0         0
         0         0         0         0         0         0         0         0
         0         0         0         0         0         0         0         0
         0         0         0         0         0         0         0         0
         0         0         0         0         0         0         0         0
         0         0         0         0         0         0         0         0
         0         0         0         0         0         0         0         0
         0         0         0         0         0         0         0         0
         0         0         0         0         0         0         0         0
         0         0         0         0         0         0         0         0
         0         0         0         0         0         0         0         0
         0         0         0         0         0         0         0         0
         0         0         0         0         0         0         0         0
         0         0         0         0         0         0         0         0
         0         0         0         0         0         0         0         0
         0         0         0         0         0         0         0         0
         0         0         0         0         0         0         0         0
         0         0         0         0         0         0         0         0
         0         0         0         0         0         0         0         0
         0         0         0         0         0         0         0         0
         0         0         0         0         0         0         0         0
         0         0         0         0         0         0         0         0
         0         0         0         0         0         0         0         0
         0         0         0         0         0         0         0         0
         0         0         0         0         0         0         0         0
         0         0         0         0         0         0         0         0
         0         0         0         0         0         0         0         0
         0         0         0         0         0         0         0         0
         0         0         0         0         0         0         0         0
         0         0         0         0         0         0         0         0
         0         0         0         0         0         0         0         0
         0         0         0         0         0         0         0         0
         0         0         0         0         0         0         0         0
         0         0         0         0         0         0         0         0
         0         0         0         0         0         0         0         0
         0         0         0         0         0         0         0         0
         0         0         0         0         0         0         0         0
         0         0         0         0         0         0         0         0
         0         0         0         0         0         0         0         0
         0         0         0         0         0         0         0         0
         0         0         0         0         0         0         0         0
         0         0         0         0         0         0         0         0
         0         0         0         0         0         0         0         0
         0         0         0         0         0         0         0         0
         0         0         0         0         0         0         0         0
         0         0         0         0         0         0         0         0
         0         0         0         0         0         0         0         0
         0         0         0         0         0         0         0         0
         0         0         0         0         0         0         0         0
         0         0         0         0         0         0         0         0
         0         0         0         0         0         0         0         0
         0         0         0         0         0         0         0         0
         0         0         0         0         0         0         0         0
         0         0         0         0         0         0         0         0
         0         0         0         0         0         0         0         0
         0         0         0         0         0         0         0         0
         0         0         0         0         0         0         0         0
         0         0         0         0         0         0         0         0
         0         0         0         0         0         0         0         0
         0         0         0         0         0         0         0         0
         0         0         0         0         0         0         0         0
         0         0         0         0         0         0         0         0
         0         0         0         0         0         0         0         0
         0         0         0         0         0         0         0         0
         0         0         0         0         0         0         0         0
         0         0         0         0         0         0         0         0
         0         0         0         0         0         0         0         0
         0         0         0         0         0         0         0         0
         0         0         0         0         0         0         0         0
         0         0         0         0         0         0         0         0
         0         0         0         0         0         0         0         0
         0         0         0         0         0         0         0         0
         0         0         0         0         0         0         0         0
         0         0         0         0         0         0         0         0
         0         0         0         0         0         0         0         0
         0         0         0         0         0         0         0         0
         0         0         0         0         0         0         0         0
         0         0         0         0         0         0         0         0
         0         0         0         0         0         0         0         0
         0         0         0         0         0         0         0         0
         0         0         0         0         0         0         0         0
         0         0         0         0         0         0         0         0
         0         0         0         0         0         0         0         0
         0         0         0         0         0         0         0         0
         0         0         0         0         0         0         0         0
         0         0         0         0         0         0         0         0
         0         0         0         0         0         0         0         0
         0         0         0         0         0         0         0         0
         0         0         0         0         0         0         0         0
         0         0         0         0         0         0         0         0
         0         0         0         0         0         0         0         0
         0         0         0         0         0         0         0         0
         0         0         0         0         0         0         0         0
         0         0         0         0         0         0         0         0
         0         0         0         0         0         0         0         0
         0         0         0         0         0         0         0         0
         0         0         0         0         0         0         0         0
         0         0         0         0         0         0         0         0
         0         0         0         0         0         0         0         0
         0         0         0         0         0         0         0         0
         0         0         0         0         0         0         0         0
         0         0         0         0         0         0         0         0
         0         0         0         0         0         0         0         0
         0         0         0         0         0         0         0         0
         0         0         0         0         0         0         0         0
         0         0         0         0         0         0         0         0
         0         0         0         0         0         0         0         0
         0         0         0         0         0         0         0         0
         0         0         0         0         0         0         0         0
         0         0         0         0         0         0         0         0
         0         0         0         0         0         0         0         0
         0         0         0         0         0         0         0         0
         0         0         0         0         0         0         0         0
         0         0         0         0         0         0         0         0
         0         0         0         0         0         0         0         0
         0         0         0         0         0         0         0         0
         0         0         0         0         0         0         0         0
         0         0         0         0         0         0         0         0
         0         0         0         0         0         0         0         0
         0         0         0         0         0         0         0         0
         0         0         0         0         0         0         0         0
         0         0         0         0         0         0         0         0
         0         0         0         0         0         0         0         0
         0         0         0         0         0         0         0         0
         0         0         0         0         0         0         0         0
         0         0         0         0         0         0         0         0
         0         0         0         0         0         0         0         0
         0         0         0         0         0         0         0         0
         0         0         0         0         0         0         0         0
         0         0         0         0         0         0         0         0
         0         0         0         0         0         0         0         0
         0         0         0         0         0         0         0         0
         0         0         0         0         0         0         0         0
         0         0         0         0         0         0         0         0
         0         0         0         0         0         0         0         0
         0         0         0         0         0         0         0         0
         0         0         0         0         0         0         0         0
         0         0         0         0         0         0         0         0
         0         0         0         0         0         0         0         0
         0         0         0         0         0         0         0         0
         0         0         0         0         0         0         0         0
         0         0         0         0         0         0         0         0
         0         0         0         0         0         0         0         0
         0         0         0         0         0         0         0         0
         0         0         0         0         0         0         0         0
         0         0         0         0         0         0         0         0
         0         0         0         0         0         0         0         0
         0         0         0         0         0         0         0         0
         0         0         0         0         0         0         0         0
         0         0         0         0         0         0         0         0
         0         0         0         0         0         0         0         0
         0         0         0         0         0         0         0         0
         0         0         0         0         0         0         0         0
         0         0         0         0         0         0         0         0
         0         0         0         0         0         0         0         0
         0         0         0         0         0         0         0         0
         0         0         0         0         0         0         0         0
         0         0         0         0         0         0         0         0
         0         0         0         0         0         0         0         0
         0         0         0         0         0         0         0         0
         0         0         0         0         0         0         0         0
         0         0         0         0         0         0         0         0
         0         0         0         0         0         0         0         0
         0         0         0         0         0         0         0         0
         0         0         0         0         0         0         0         0
         0         0         0         0         0         0         0         0
         0         0         0         0         0         0         0         0
         0         0         0         0         0         0         0         0
         0         0         0         0         0         0         0         0
         0         0         0         0         0         0         0         0
         0         0         0         0         0         0         0         0
         0         0         0         0         0         0         0         0
         0         0         0         0         0         0         0         0
         0         0         0         0         0         0         0         0
         0         0         0         0         0         0         0         0
         0         0         0         0         0         0         0         0
         0         0         0         0         0         0         0         0
         0         0         0         0         0         0         0         0
         0         0         0         0         0         0         0         0
         0         0         0         0         0         0         0         0
         0         0         0         0         0         0         0         0
         0         0         0         0         0         0         0         0
         0         0         0         0         0         0         0         0
         0         0         0         0         0         0         0         0
         0         0         0         0         0         0         0         0
         0         0         0         0         0         0         0         0
         0         0         0         0         0         0         0         0
         0         0         0         0         0         0         0         0
         0         0         0         0         0         0         0         0
         0         0         0         0         0         0         0         0
         0         0         0         0         0         0         0         0
         0         0         0         0         0         0         0         0
         0         0         0         0         0         0         0         0
         0         0         0         0         0         0         0         0
         0         0         0         0         0         0         0         0
         0         0         0         0         0         0         0         0
         0         0         0         0         0         0         0         0
         0         0         0         0         0         0         0         0
         0         0         0         0         0         0         0         0
         0         0         0         0         0         0         0         0
         0         0         0         0         0         0         0         0
         0         0         0         0         0         0         0         0
         0         0         0         0         0         0         0         0
         0         0         0         0         0         0         0         0
         0         0         0         0         0         0         0         0
         0         0         0         0         0         0         0         0
         0         0         0         0         0         0         0         0
         0         0         0         0         0         0         0         0
         0         0         0         0         0         0         0         0
         0         0         0         0         0         0         0         0
         0         0         0         0         0         0         0         0
         0         0         0         0         0         0         0         0
         0         0         0         0         0         0         0         0
         0         0         0         0         0         0         0         0
         0         0         0         0         0         0         0         0
         0         0         0         0         0         0         0         0
         0         0         0         0         0         0         0         0
         0         0         0         0         0         0         0         0
         0         0         0         0         0         0         0         0
         0         0         0         0         0         0         0         0
         0         0         0         0         0         0         0         0
         0         0         0         0         0         0         0         0
         0         0         0         0         0         0         0         0
         0         0         0         0         0         0         0         0
         0         0         0         0         0         0         0         0
         0         0         0         0         0         0         0         0
         0         0         0         0         0         0         0         0
         0         0         0         0         0         0         0         0
         0         0         0         0         0         0         0         0
         0         0         0         0         0         0         0         0
         0         0         0         0         0         0         0         0
         0         0         0         0         0         0         0         0
         0         0         0         0         0         0         0         0
         0         0         0         0         0         0         0         0
         0         0         0         0         0         0         0         0
         0         0         0         0         0         0         0         0
         0         0         0         0         0         0         0         0
         0         0         0         0         0         0         0         0
         0         0         0         0         0         0         0         0
         0         0         0         0         0         0         0         0
         0         0         0         0         0         0         0         0
         0         0         0         0         0         0         0         0
         0         0         0         0         0         0         0         0
         0         0         0         0         0         0         0         0
         0         0         0         0         0         0         0         0
         0         0         0         0         0         0         0         0
         0         0         0         0         0         0         0         0
         0         0         0         0         0         0         0         0
         0         0         0         0         0         0         0         0
         0         0         0         0         0         0         0         0
         0         0         0         0         0         0         0         0
         0         0         0         0         0         0         0         0
         0         0         0         0         0         0         0         0
         0         0         0         0         0         0         0         0
         0         0         0         0         0         0         0         0
         0         0         0         0         0         0         0         0
         0         0         0         0         0         0         0         0
         0         0         0         0         0         0         0         0
         0         0         0         0         0         0         0         0
         0         0         0         0         0         0         0         0
         0         0         0         0         0         0         0         0
         0         0         0         0         0         0         0         0
         0         0         0         0         0         0         0         0
         0         0         0         0         0         0         0         0
         0         0         0         0         0         0         0         0
         0         0         0         0         0         0         0         0
         0         0         0         0         0         0         0         0
         0         0         0         0         0         0         0         0
         0         0         0         0         0         0         0         0
         0         0         0         0         0         0         0         0
         0         0         0         0         0         0         0         0
         0         0         0         0         0         0         0         0
         0         0         0         0         0         0         0         0
         0         0         0         0         0         0         0         0
         0         0         0         0         0         0         0         0
         0         0         0         0         0         0         0         0
         0         0         0         0         0         0         0         0
         0         0         0         0         0         0         0         0
         0         0         0         0         0         0         0         0
         0         0         0         0         0         0         0         0
         0         0         0         0         0         0         0         0
         0         0         0         0         0         0         0         0
         0         0         0         0         0         0         0         0
         0         0         0         0         0         0         0         0
         0         0         0         0         0         0         0         0
         0         0         0         0         0         0         0         0
         0         0         0         0         0         0         0         0
         0         0         0         0         0         0         0         0
         0         0         0         0         0         0         0         0
         0         0         0         0         0         0         0         0
         0         0         0         0         0         0         0         0
         0         0         0         0         0         0         0         0
         0         0         0         0         0         0         0         0
         0         0         0         0         0         0         0         0
         0         0         0         0         0         0         0         0
         0         0         0         0         0         0         0         0
         0         0         0         0         0         0         0         0
         0         0         0         0         0         0         0         0
         0         0         0         0         0         0         0         0
         0         0         0         0         0         0         0         0
         0         0         0         0         0         0         0         0
         0         0         0         0         0         0         0         0
         0         0         0         0         0         0         0         0
         0         0         0         0         0         0         0         0
         0         0         0         0         0         0         0         0
         0         0         0         0         0         0         0         0
         0         0         0         0         0         0         0         0
         0         0         0         0         0         0         0         0
         0         0         0         0         0         0         0         0
         0         0         0         0         0         0         0         0
         0         0         0         0         0         0         0         0
         0         0         0         0         0         0         0         0
         0         0         0         0         0         0         0         0
         0         0         0         0         0         0         0         0
         0         0         0         0         0         0         0         0
         0         0         0         0         0         0         0         0
         0         0         0         0         0         0         0         0
         0         0         0         0         0         0         0         0
         0         0         0         0         0         0         0         0
         0         0         0         0         0         0         0         0
         0         0         0         0         0         0         0         0
         0         0         0         0         0         0         0         0
         0         0         0         0         0         0         0         0
         0         0         0         0         0         0         0         0
         0         0         0         0         0         0         0         0
         0         0         0         0         0         0         0         0
         0         0         0         0         0         0         0         0
         0         0         0         0         0         0         0         0
         0         0         0         0         0         0         0         0
         0         0         0         0         0         0         0         0
         0         0         0         0         0         0         0         0
         0         0         0         0         0         0         0         0
         0         0         0         0         0         0         0         0
         0         0         0         0         0         0         0         0
         0         0         0         0         0         0         0         0
         0         0         0         0         0         0         0         0
         0         0         0         0         0         0         0         0
         0         0         0         0         0         0         0         0
         0         0         0         0         0         0         0         0
         0         0         0         0         0         0         0         0
         0         0         0         0         0         0         0         0
         0         0         0         0         0         0         0         0
         0         0         0         0         0         0         0         0
         0         0         0         0         0         0         0         0
         0         0         0         0         0         0         0         0
         0         0         0         0         0         0         0         0
         0         0         0         0         0         0         0         0
         0         0         0         0         0         0         0         0
         0         0         0         0         0         0         0         0
         0         0         0         0         0         0         0         0
         0         0         0         0         0         0         0         0
         0         0         0         0         0         0         0         0
         0         0         0         0         0         0         0         0
         0         0         0         0         0         0         0         0
         0         0         0         0         0         0         0         0
         0         0         0         0         0         0         0         0
         0         0         0         0         0         0         0         0
         0         0         0         0         0         0         0         0
         0         0         0         0         0         0         0         0
         0         0         0         0         0         0         0         0
         0         0         0         0         0         0         0         0
         0         0         0         0         0         0         0         0
         0         0         0         0         0         0         0         0
         0         0         0         0         0         0         0         0
         0         0         0         0         0         0         0         0
         0         0         0         0         0         0         0         0
         0         0         0         0         0         0         0         0
         0         0         0         0         0         0         0         0
         0         0         0         0         0         0         0         0
         0         0         0         0         0         0         0         0
         0         0         0         0         0         0         0         0
         0         0         0         0         0         0         0         0
         0         0         0         0         0         0         0         0
         0         0         0         0         0         0         0         0
         0         0         0         0         0         0         0         0
         0         0         0         0         0         0         0         0
         0         0         0         0         0         0         0         0
         0         0         0         0         0         0         0         0
         0         0         0         0         0         0         0         0
         0         0         0         0         0         0         0         0
         0         0         0         0         0         0         0         0
         0         0         0         0         0         0         0         0
         0         0         0         0         0         0         0         0
         0         0         0         0         0         0         0         0
         0         0         0         0         0         0         0         0
         0         0         0         0         0         0         0         0
         0         0         0         0         0         0         0         0
         0         0         0         0         0         0         0         0
         0         0         0         0         0         0         0         0
         0         0         0         0         0         0         0         0
         0         0         0         0         0         0         0         0
         0         0         0         0         0         0         0         0
         0         0         0         0         0         0         0         0
         0         0         0         0         0         0         0         0
         0         0         0         0         0         0         0         0
         0         0         0         0         0         0         0         0
         0         0         0         0         0         0         0         0
         0         0         0         0         0         0         0         0
         0         0         0         0         0         0         0         0
         0         0         0         0         0         0         0         0
         0         0         0         0         0         0         0         0
         0         0         0         0         0         0         0         0
         0         0         0         0         0         0         0         0
         0         0         0         0         0         0         0         0
         0         0         0         0         0         0         0         0
         0         0         0         0         0         0         0         0
         0         0         0         0         0         0         0         0
         0         0         0         0         0         0         0         0
         0         0         0         0         0         0         0         0
         0         0         0         0         0         0         0         0
         0         0         0         0         0         0         0         0
         0         0         0         0         0         0         0         0
         0         0         0         0         0         0         0         0
         0         0         0         0         0         0         0         0
         0         0         0         0         0         0         0         0
         0         0         0         0         0         0         0         0
         0         0         0         0         0         0         0         0
         0         0         0         0         0         0         0         0
         0         0         0         0         0         0         0         0
         0         0         0         0         0         0         0         0
         0         0         0         0         0         0         0         0
         0         0         0         0         0         0         0         0
         0         0         0         0         0         0         0         0
         0         0         0         0         0         0         0         0
         0         0         0         0         0         0         0         0
         0         0         0         0         0         0         0         0
         0         0         0         0         0         0         0         0
         0         0         0         0         0         0         0         0
         0         0         0         0         0         0         0         0
         0         0         0         0         0         0         0         0
         0         0         0         0         0         0         0         0
         0         0         0         0         0         0         0         0
         0         0         0         0         0         0         0         0
         0         0         0         0         0         0         0         0
         0         0         0         0         0         0         0         0
         0         0         0         0         0         0         0         0
         0         0         0         0         0         0         0         0
         0         0         0         0         0         0         0         0
         0         0         0         0         0         0         0         0
         0         0         0         0         0         0         0         0
         0         0         0         0         0         0         0         0
         0         0         0         0         0         0         0         0
         0         0         0         0         0         0         0         0
         0         0         0         0         0         0         0         0
         0         0         0         0         0         0         0         0
         0         0         0         0         0         0         0         0
         0         0         0         0         0         0         0         0
         0         0         0         0         0         0         0         0
         0         0         0         0         0         0         0         0
         0         0         0         0         0         0         0         0
         0         0         0         0         0         0         0         0
         0         0         0         0         0         0         0         0
         0         0         0         0         0         0         0         0
         0         0         0         0         0         0         0         0
         0         0         0         0         0         0         0         0
         0         0         0         0         0         0         0         0
         0         0         0         0         0         0         0         0
         0         0         0         0         0         0         0         0
         0         0         0         0         0         0         0         0
         0         0         0         0         0         0         0         0
         0         0         0         0         0         0         0         0
         0         0         0         0         0         0         0         0
         0         0         0         0         0         0         0         0
         0         0         0         0         0         0         0         0
         0         0         0         0         0         0         0         0
         0         0         0         0         0         0         0         0
         0         0         0         0         0         0         0         0
         0         0         0         0         0         0         0         0
         0         0         0         0         0         0         0         0
         0         0         0         0         0         0         0         0
         0         0         0         0         0         0         0         0
         0         0         0         0         0         0         0         0
         0         0         0         0         0         0         0         0
         0         0         0         0         0         0         0         0
         0         0         0         0         0         0         0         0
         0         0         0         0         0         0         0         0
         0         0         0         0         0         0         0         0
         0         0         0         0         0         0         0         0
         0         0         0         0         0         0         0         0
         0         0         0         0         0         0         0         0
         0         0         0         0         0         0         0         0
         0         0         0         0         0         0         0         0
         0         0         0         0         0         0         0         0
         0         0         0         0         0         0         0         0
         0         0         0         0         0         0         0         0
         0         0         0         0         0         0         0         0
         0         0         0         0         0         0         0         0
         0         0         0         0         0         0         0         0
         0         0         0         0         0         0         0         0
         0         0         0         0         0         0         0         0
         0         0         0         0         0         0         0         0
         0         0         0         0         0         0         0         0
         0         0         0         0         0         0         0         0
         0         0         0         0         0         0         0         0
         0         0         0         0         0         0         0         0
         0         0         0         0         0         0         0         0
         0         0         0         0         0         0         0         0
         0         0         0         0         0         0         0         0
         0         0         0         0         0         0         0         0
         0         0         0         0         0         0         0         0
         0         0         0         0         0         0         0         0
         0         0         0         0         0         0         0         0
         0         0         0         0         0         0         0         0
         0         0         0         0         0         0         0         0
         0         0         0         0         0         0         0         0
         0         0         0         0         0         0         0         0
         0         0         0         0         0         0         0         0
         0         0         0         0         0         0         0         0
         0         0         0         0         0         0         0         0
         0         0         0         0         0         0         0         0
         0         0         0         0         0         0         0         0
         0         0         0         0         0         0         0         0
         0         0         0         0         0         0         0         0
         0         0         0         0         0         0         0         0
         0         0         0         0         0         0         0         0
         0         0         0         0         0         0         0         0
         0         0         0         0         0         0         0         0
         0         0         0         0         0         0         0         0
         0         0         0         0         0         0         0         0
         0         0         0         0         0         0         0         0
         0         0         0         0         0         0         0         0
         0         0         0         0         0         0         0         0
         0         0         0         0         0         0         0         0
         0         0         0         0         0         0         0         0
         0         0         0         0         0         0         0         0
         0         0         0         0         0         0         0         0
         0         0         0         0         0         0         0         0
         0         0         0         0         0         0         0         0
         0         0         0         0         0         0         0         0
         0         0         0         0         0         0         0         0
         0         0         0         0         0         0         0         0
         0         0         0         0         0         0         0         0
         0         0         0         0         0         0         0         0
         0         0         0         0         0         0         0         0
         0         0         0         0         0         0         0         0
         0         0         0         0         0         0         0         0
         0         0         0         0         0         0         0         0
         0         0         0         0         0         0         0         0
         0         0         0         0         0         0         0         0
         0         0         0         0         0         0         0         0
         0         0         0         0         0         0         0         0
         0         0         0         0         0         0         0         0
         0         0         0         0         0         0         0         0
         0         0         0         0         0         0         0         0
         0         0         0         0         0         0         0         0
         0         0         0         0         0         0         0         0
         0         0         0         0         0         0         0         0
         0         0         0         0         0         0         0         0
         0         0         0         0         0         0         0         0
         0         0         0         0         0         0         0         0
         0         0         0         0         0         0         0         0
         0         0         0         0         0         0         0         0
         0         0         0         0         0         0         0         0
         0         0         0         0         0         0         0         0
         0         0         0         0         0         0         0         0
         0         0         0         0         0         0         0         0
         0         0         0         0         0         0         0         0
         0         0         0         0         0         0         0         0
         0         0         0         0         0         0         0         0
         0         0         0         0         0         0         0         0
         0         0         0         0         0         0         0         0
         0         0         0         0         0         0         0         0
         0         0         0         0         0         0         0         0
         0         0         0         0         0         0         0         0
         0         0         0         0         0         0         0         0
         0         0         0         0         0         0         0         0
         0         0         0         0         0         0         0         0
         0         0         0         0         0         0         0         0
         0         0         0         0         0         0         0         0
         0         0         0         0         0         0         0         0
         0         0         0         0         0         0         0         0
         0         0         0         0         0         0         0         0
         0         0         0         0         0         0         0         0
         0         0         0         0         0         0         0         0
         0         0         0         0         0         0         0         0
         0         0         0         0         0         0         0         0
         0         0         0         0         0         0         0         0
         0         0         0         0         0         0         0         0
         0         0         0         0         0         0         0         0
         0         0         0         0         0         0         0         0
         0         0         0         0         0         0         0         0
         0         0         0         0         0         0         0         0
         0         0         0         0         0         0         0         0
         0         0         0         0         0         0         0         0
         0         0         0         0         0         0         0         0
         0         0         0         0         0         0         0         0
         0         0         0         0         0         0         0         0
         0         0         0         0         0         0         0         0
         0         0         0         0         0         0         0         0
         0         0         0         0         0         0         0         0
         0         0         0         0         0         0         0         0
         0         0         0         0         0         0         0         0
         0         0         0         0         0         0         0         0
         0         0         0         0         0         0         0         0
         0         0         0         0         0         0         0         0
         0         0         0         0         0         0         0         0
         0         0         0         0         0         0         0         0
         0         0         0         0         0         0         0         0
         0         0         0         0         0         0         0         0
         0         0         0         0         0         0         0         0
         0         0         0         0         0         0         0         0
         0         0         0         0         0         0         0         0
         0         0         0         0         0         0         0         0
         0         0         0         0         0         0         0         0
         0         0         0         0         0         0         0         0
         0         0         0         0         0         0         0         0
         0         0         0         0         0         0         0         0
         0         0         0         0         0         0         0         0
         0         0         0         0         0         0         0         0
         0         0         0         0         0         0         0         0
         0         0         0         0         0         0         0         0
         0         0         0         0         0         0         0         0
         0         0         0         0         0         0         0         0
         0         0         0         0         0         0         0         0
         0         0         0         0         0         0         0         0
         0         0         0         0         0         0         0         0
         0         0         0         0         0         0         0         0
         0         0         0         0         0         0         0         0
         0         0         0         0         0         0         0         0
         0         0         0         0         0         0         0         0
         0         0         0         0         0         0         0         0
         0         0         0         0         0         0         0         0
         0         0         0         0         0         0         0         0
         0         0         0         0         0         0         0         0
         0         0         0         0         0         0         0         0
         0         0         0         0         0         0         0         0
         0         0         0         0         0         0         0         0
         0         0         0         0         0         0         0         0
         0         0         0         0         0         0         0         0
         0         0         0         0         0         0         0         0
         0         0         0         0         0         0         0         0
         0         0         0         0         0         0         0         0
         0         0         0         0         0         0         0         0
         0         0         0         0         0         0         0         0
         0         0         0         0         0         0         0         0
         0         0         0         0         0         0         0         0
         0         0         0         0         0         0         0         0
         0         0         0         0         0         0         0         0
         0         0         0         0         0         0         0         0
         0         0         0         0         0         0         0         0
         0         0         0         0         0         0         0         0
         0         0         0         0         0         0         0         0
         0         0         0         0         0         0         0         0
         0         0         0         0         0         0         0         0
         0         0         0         0         0         0         0         0
         0         0         0         0         0         0         0         0
         0         0         0         0         0         0         0         0
         0         0         0         0         0         0         0         0
         0         0         0         0         0         0         0         0
         0         0         0         0         0         0         0         0
         0         0         0         0         0         0         0         0
         0         0         0         0         0         0         0         0
         0         0         0         0         0         0         0         0
         0         0         0         0         0         0         0         0
         0         0         0         0         0         0         0         0
         0         0         0         0         0         0         0         0
         0         0         0         0         0         0         0         0
         0         0         0         0         0         0         0         0
         0         0         0         0         0         0         0         0
         0         0         0         0         0         0         0         0
         0         0         0         0         0         0         0         0
         0         0         0         0         0         0         0         0
         0         0         0         0         0         0         0         0
         0         0         0         0         0         0         0         0
         0         0         0         0         0         0         0         0
         0         0         0         0         0         0         0         0
         0         0         0         0         0         0         0         0
         0         0         0         0         0         0         0         0
         0         0         0         0         0         0         0         0
         0         0         0         0         0         0         0         0
         0         0         0         0         0         0         0         0
         0         0         0         0         0         0         0         0
         0         0         0         0         0         0         0         0
         0         0         0         0         0         0         0         0
         0         0         0         0         0         0         0         0
         0         0         0         0         0         0         0         0
         0         0         0         0         0         0         0         0
         0         0         0         0         0         0         0         0
         0         0         0         0         0         0         0         0
         0         0         0         0         0         0         0         0
         0         0         0         0         0         0         0         0
         0         0         0         0         0         0         0         0
         0         0         0         0         0         0         0         0
         0         0         0         0         0         0         0         0
         0         0         0         0         0         0         0         0
         0         0         0         0         0         0         0         0
         0         0         0         0         0         0         0         0
         0         0         0         0         0         0         0         0
         0         0         0         0         0         0         0         0
         0         0         0         0         0         0         0         0
         0         0         0         0         0         0         0         0
         0         0         0         0         0         0         0         0
         0         0         0         0         0         0         0         0
         0         0         0         0         0         0         0         0
         0         0         0         0         0         0         0         0
         0         0         0         0         0         0         0         0
         0         0         0         0         0         0         0         0
         0         0         0         0         0         0         0         0
         0         0         0         0         0         0         0         0
         0         0         0         0         0         0         0         0
         0         0         0         0         0         0         0         0
         0         0         0         0         0         0         0         0
         0         0         0         0         0         0         0         0
         0         0         0         0         0         0         0         0
         0         0         0         0         0         0         0         0
         0         0         0         0         0         0         0         0
         0         0         0         0         0         0         0         0
         0         0         0         0         0         0         0         0
         0         0         0         0         0         0         0         0
         0         0         0         0         0         0         0         0
         0         0         0         0         0         0         0         0
         0         0         0         0         0         0         0         0
         0         0         0         0         0         0         0         0
         0         0         0         0         0         0         0         0
         0         0         0         0         0         0         0         0
         0         0         0         0         0         0         0         0
         0         0         0         0         0         0         0         0
         0         0         0         0         0         0         0         0
         0         0         0         0         0         0         0         0
         0         0         0         0         0         0         0         0
         0         0         0         0         0         0         0         0
         0         0         0         0         0         0         0         0
         0         0         0         0         0         0         0         0
         0         0         0         0         0         0         0         0
         0         0         0         0         0         0         0         0
         0         0         0         0         0         0         0         0
         0         0         0         0         0         0         0         0
         0         0         0         0         0         0         0         0
         0         0         0         0         0         0         0         0
         0         0         0         0         0         0         0         0
         0         0         0         0         0         0         0         0
         0         0         0         0         0         0         0         0
         0         0         0         0         0         0         0         0
         0         0         0         0         0         0         0         0
         0         0         0         0         0         0         0         0
         0         0         0         0         0         0         0         0
         0         0         0         0         0         0         0         0
         0         0         0         0         0         0         0         0
         0         0         0         0         0         0         0         0
         0         0         0         0         0         0         0         0
         0         0         0         0         0         0         0         0
         0         0         0         0         0         0         0         0
         0         0         0         0         0         0         0         0
         0         0         0         0         0         0         0         0
         0         0         0         0         0         0         0         0
         0         0         0         0         0         0         0         0
         0         0         0         0         0         0         0         0
         0         0         0         0         0         0         0         0
         0         0         0         0         0         0         0         0
         0         0         0         0         0         0         0         0
         0         0         0         0         0         0         0         0
         0         0         0         0         0         0         0         0
         0         0         0         0         0         0         0         0
         0         0         0         0         0         0         0         0
         0         0         0         0         0         0         0         0
         0         0         0         0         0         0         0         0
         0         0         0         0         0         0         0         0
         0         0         0         0         0         0         0         0
         0         0         0         0         0         0         0         0
         0         0         0         0         0         0         0         0
         0         0         0         0         0         0         0         0
         0         0         0         0         0         0         0         0
         0         0         0         0         0         0         0         0
         0         0         0         0         0         0         0         0
         0         0         0         0         0         0         0         0
         0         0         0         0         0         0         0         0
         0         0         0         0         0         0         0         0
         0         0         0         0         0         0         0         0
         0         0         0         0         0         0         0         0
         0         0         0         0         0         0         0         0
         0         0         0         0         0         0         0         0
         0         0         0         0         0         0         0         0
         0         0         0         0         0         0         0         0
         0         0         0         0         0         0         0         0
         0         0         0         0         0         0         0         0
         0         0         0         0         0         0         0         0
         0         0         0         0         0         0         0         0
         0         0         0         0         0         0         0         0
         0         0         0         0         0         0         0         0
         0         0         0         0         0         0         0         0
         0         0         0         0         0         0         0         0
         0         0         0         0         0         0         0         0
         0         0         0         0         0         0         0         0
         0         0         0         0         0         0         0         0
         0         0         0         0         0         0         0         0
         0         0         0         0         0         0         0         0
         0         0         0         0         0         0         0         0
         0         0         0         0         0         0         0         0
         0         0         0         0         0         0         0         0
         0         0         0         0         0         0         0         0
         0         0         0         0         0         0         0         0
         0         0         0         0         0         0         0         0
         0         0         0         0         0         0         0         0
         0         0         0         0         0         0         0         0
         0         0         0         0         0         0         0         0
         0         0         0         0         0         0         0         0
         0         0         0         0         0         0         0         0
         0         0         0         0         0         0         0         0
         0         0         0         0         0         0         0         0
         0         0         0         0         0         0         0         0
         0         0         0         0         0         0         0         0
         0         0         0         0         0         0         0         0
         0         0         0         0         0         0         0         0
         0         0         0         0         0         0         0         0
         0         0         0         0         0         0         0         0
         0         0         0         0         0         0         0         0
         0         0         0         0         0         0         0         0
         0         0         0         0         0         0         0         0
         0         0         0         0         0         0         0         0
         0         0         0         0         0         0         0         0
         0         0         0         0         0         0         0         0
         0         0         0         0         0         0         0         0
         0         0         0         0         0         0         0         0
         0         0         0         0         0         0         0         0
         0         0         0         0         0         0         0         0
         0         0         0         0         0         0         0         0
         0         0         0         0         0         0         0         0
         0         0         0         0         0         0         0         0
         0         0         0         0         0         0         0         0
         0         0         0         0         0         0         0         0
         0         0         0         0         0         0         0         0
         0         0         0         0         0         0         0         0
         0         0         0         0         0         0         0         0
         0         0         0         0         0         0         0         0
         0         0         0         0         0         0         0         0
         0         0         0         0         0         0         0         0
         0         0         0         0         0         0         0         0
         0         0         0         0         0         0         0         0
         0         0         0         0         0         0         0         0
         0         0         0         0         0         0         0         0
         0         0         0         0         0         0         0         0
         0         0         0         0         0         0         0         0
         0         0         0         0         0         0         0         0
         0         0         0         0         0         0         0         0
         0         0         0         0         0         0         0         0
         0         0         0         0         0         0         0         0
         0         0         0         0         0         0         0         0
         0         0         0         0         0         0         0         0
         0         0         0         0         0         0         0         0
         0         0         0         0         0         0         0         0
         0         0         0         0         0         0         0         0
         0         0         0         0         0         0         0         0
         0         0         0         0         0         0         0         0
         0         0         0         0         0         0         0         0
         0         0         0         0         0         0         0         0
         0         0         0         0         0         0         0         0
         0         0         0         0         0         0         0         0
         0         0         0         0         0         0         0         0
         0         0         0         0         0         0         0         0
         0         0         0         0         0         0         0         0
         0         0         0         0         0         0         0         0
         0         0         0         0         0         0         0         0
         0         0         0         0         0         0         0         0
         0         0         0         0         0         0         0         0
         0         0         0         0         0         0         0         0
         0         0         0         0         0         0         0         0
         0         0         0         0         0         0         0         0
         0         0         0         0         0         0         0         0
         0         0         0         0         0         0         0         0
         0         0         0         0         0         0         0         0
         0         0         0         0         0         0         0         0
         0         0         0         0         0         0         0         0
         0         0         0         0         0         0         0         0
         0         0         0         0         0         0         0         0
         0         0         0         0         0         0         0         0
         0         0         0         0         0         0         0         0
         0         0         0         0         0         0         0         0
         0         0         0         0         0         0         0         0
         0         0         0         0         0         0         0         0
         0         0         0         0         0         0         0         0
         0         0         0         0         0         0         0         0
         0         0         0         0         0         0         0         0
         0         0         0         0         0         0         0         0
         0         0         0         0         0         0         0         0
         0         0         0         0         0         0         0         0
         0         0         0         0         0         0         0         0
         0         0         0         0         0         0         0         0
         0         0         0         0         0         0         0         0
         0         0         0         0         0         0         0         0
         0         0         0         0         0         0         0         0
         0         0         0         0         0         0         0         0
         0         0         0         0         0         0         0         0
         0         0         0         0         0         0         0         0
         0         0         0         0         0         0         0         0
         0         0         0         0         0         0         0         0
         0         0         0         0         0         0         0         0
         0         0         0         0         0         0         0         0
         0         0         0         0         0         0         0         0
         0         0         0         0         0         0         0         0
         0         0         0         0         0         0         0         0
         0         0         0         0         0         0         0         0
         0         0         0         0         0         0         0         0
         0         0         0         0         0         0         0         0
         0         0         0         0         0         0         0         0
         0         0         0         0         0         0         0         0
         0         0         0         0         0         0         0         0
         0         0         0         0         0         0         0         0
         0         0         0         0         0         0         0         0
         0         0         0         0         0         0         0         0
         0         0         0         0         0         0         0         0
         0         0         0         0         0         0         0         0
         0         0         0         0         0         0         0         0
         0         0         0         0         0         0         0         0
         0         0         0         0         0         0         0         0
         0         0         0         0         0         0         0         0
         0         0         0         0         0         0         0         0
         0         0         0         0         0         0         0         0
         0         0         0         0         0         0         0         0
         0         0         0         0         0         0         0         0
         0         0         0         0         0         0         0         0
         0         0         0         0         0         0         0         0
         0         0         0         0         0         0         0         0
         0         0         0         0         0         0         0         0
         0         0         0         0         0         0         0         0
         0         0         0         0         0         0         0         0
         0         0         0         0         0         0         0         0
         0         0         0         0         0         0         0         0
         0         0         0         0         0         0         0         0
         0         0         0         0         0         0         0         0
         0         0         0         0         0         0         0         0
         0         0         0         0         0         0         0         0
         0         0         0         0         0         0         0         0
         0         0         0         0         0         0         0         0
         0         0         0         0         0         0         0         0
         0         0         0         0         0         0         0         0
         0         0         0         0         0         0         0         0
         0         0         0         0         0         0         0         0
         0         0         0         0         0         0         0         0
         0         0         0         0         0         0         0         0
         0         0         0         0         0         0         0         0
         0         0         0         0         0         0         0         0
         0         0         0         0         0         0         0         0
         0         0         0         0         0         0         0         0
         0         0         0         0         0         0         0         0
         0         0         0         0         0         0         0         0
         0         0         0         0         0         0         0         0
         0         0         0         0         0         0         0         0
         0         0         0         0         0         0         0         0
         0         0         0         0         0         0         0         0
         0         0         0         0         0         0         0         0
         0         0         0         0         0         0         0         0
         0         0         0         0         0         0         0         0
         0         0         0         0         0         0         0         0
         0         0         0         0         0         0         0         0
         0         0         0         0         0         0         0         0
         0         0         0         0         0         0         0         0
         0         0         0         0         0         0         0         0
         0         0         0         0         0         0         0         0
         0         0         0         0         0         0         0         0
         0         0         0         0         0         0         0         0
         0         0         0         0         0         0         0         0
         0         0         0         0         0         0         0         0
         0         0         0         0         0         0         0         0
         0         0         0         0         0         0         0         0
         0         0         0         0         0         0         0         0
         0         0         0         0         0         0         0         0
         0         0         0         0         0         0         0         0
         0         0         0         0         0         0         0         0
         0         0         0         0         0         0         0         0
         0         0         0         0         0         0         0         0
         0         0         0         0         0         0         0         0
         0         0         0         0         0         0         0         0
         0         0         0         0         0         0         0         0
         0         0         0         0         0         0         0         0
         0         0         0         0         0         0         0         0
         0         0         0         0         0         0         0         0
         0         0         0         0         0         0         0         0
         0         0         0         0         0         0         0         0
         0         0         0         0         0         0         0         0
         0         0         0         0         0         0         0         0
         0         0         0         0         0         0         0         0
         0         0         0         0         0         0         0         0
         0         0         0         0         0         0         0         0
         0         0         0         0         0         0         0         0
         0         0         0         0         0         0         0         0
         0         0         0         0         0         0         0         0
         0         0         0         0         0         0         0         0
         0         0         0         0         0         0         0         0
         0         0         0         0         0         0         0         0
         0         0         0         0         0         0         0         0
         0         0         0         0         0         0         0         0
         0         0         0         0         0         0         0         0
         0         0         0         0         0         0         0         0
         0         0         0         0         0         0         0         0
         0         0         0         0         0         0         0         0
         0         0         0         0         0         0         0         0
         0         0         0         0         0         0         0         0
         0         0         0         0         0         0         0         0
         0         0         0         0         0         0         0         0
         0         0         0         0         0         0         0         0
         0         0         0         0         0         0         0         0
         0         0         0         0         0         0         0         0
         0         0         0         0         0         0         0         0
         0         0         0         0         0         0         0         0
         0         0         0         0         0         0         0         0
         0         0         0         0         0         0         0         0
         0         0         0         0         0         0         0         0
         0         0         0         0         0         0         0         0
         0         0         0         0         0         0         0         0
         0         0         0         0         0         0         0         0
         0         0         0         0         0         0         0         0
         0         0         0         0         0         0         0         0
         0         0         0         0         0         0         0         0
         0         0         0         0         0         0         0         0
         0         0         0         0         0         0         0         0
         0         0         0         0         0         0         0         0
         0         0         0         0         0         0         0         0
         0         0         0         0         0         0         0         0
         0         0         0         0         0         0         0         0
         0         0         0         0         0         0         0         0
         0         0         0         0         0         0         0         0
         0         0         0         0         0         0         0         0
         0         0         0         0         0         0         0         0
         0         0         0         0         0         0         0         0
         0         0         0         0         0         0         0         0
         0         0         0         0         0         0         0         0
         0         0         0         0         0         0         0         0
         0         0         0         0         0         0         0         0
         0         0         0         0         0         0         0         0
         0         0         0         0         0         0         0         0
         0         0         0         0         0         0         0         0
         0         0         0         0         0         0         0         0
         0         0         0         0         0         0         0         0
         0         0         0         0         0         0         0         0
         0         0         0         0         0         0         0         0
         0         0         0         0         0         0         0         0
         0         0         0         0         0         0         0         0
         0         0         0         0         0         0         0         0
         0         0         0         0         0         0         0         0
         0         0         0         0         0         0         0         0
         0         0         0         0         0         0         0         0
         0         0         0         0         0         0         0         0
         0         0         0         0         0         0         0         0
         0         0         0         0         0         0         0         0
         0         0         0         0         0         0         0         0
         0         0         0         0         0         0         0         0
         0         0         0         0         0         0         0         0
         0         0         0         0         0         0         0         0
         0         0         0         0         0         0         0         0
         0         0         0         0         0         0         0         0
         0         0         0         0         0         0         0         0
         0         0         0         0         0         0         0         0
         0         0         0         0         0         0         0         0
         0         0         0         0         0         0         0         0
         0         0         0         0         0         0         0         0
         0         0         0         0         0         0         0         0
         0         0         0         0         0         0         0         0
         0         0         0         0         0         0         0         0
         0         0         0         0         0         0         0         0
         0         0         0         0         0         0         0         0
         0         0         0         0         0         0         0         0
         0         0         0         0         0         0         0         0
         0         0         0         0         0         0         0         0
         0         0         0         0         0         0         0         0
         0         0         0         0         0         0         0         0
         0         0         0         0         0         0         0         0
         0         0         0         0         0         0         0         0
         0         0         0         0         0         0         0         0
         0         0         0         0         0         0         0         0
         0         0         0         0         0         0         0         0
         0         0         0         0         0         0         0         0
         0         0         0         0         0         0         0         0
         0         0         0         0         0         0         0         0
         0         0         0         0         0         0         0         0
         0         0         0         0         0         0         0         0
         0         0         0         0         0         0         0         0
         0         0         0         0         0         0         0         0
         0         0         0         0         0         0         0         0
         0         0         0         0         0         0         0         0
         0         0         0         0         0         0         0         0
         0         0         0         0         0         0         0         0
         0         0         0         0         0         0         0         0
         0         0         0         0         0         0         0         0
         0         0         0         0         0         0         0         0
         0         0         0         0         0         0         0         0
         0         0         0         0         0         0         0         0
         0         0         0         0         0         0         0         0
         0         0         0         0         0         0         0         0
         0         0         0         0         0         0         0         0
         0         0         0         0         0         0         0         0
         0         0         0         0         0         0         0         0
         0         0         0         0         0         0         0         0
         0         0         0         0         0         0         0         0
         0         0         0         0         0         0         0         0
         0         0         0         0         0         0         0         0
         0         0         0         0         0         0         0         0
         0         0         0         0         0         0         0         0
         0         0         0         0         0         0         0         0
         0         0         0         0         0         0         0         0
         0         0         0         0         0         0         0         0
         0         0         0         0         0         0         0         0
         0         0         0         0         0         0         0         0
         0         0         0         0         0         0         0         0
         0         0         0         0         0         0         0         0
         0         0         0         0         0         0         0         0
         0         0         0         0         0         0         0         0
         0         0         0         0         0         0         0         0
         0         0         0         0         0         0         0         0
         0         0         0         0         0         0         0         0
         0         0         0         0         0         0         0         0
         0         0         0         0         0         0         0         0
         0         0         0         0         0         0         0         0
         0         0         0         0         0         0         0         0
         0         0         0         0         0         0         0         0
         0         0         0         0         0         0         0         0
         0         0         0         0         0         0         0         0
         0         0         0         0         0         0         0         0
         0         0         0         0         0         0         0         0
         0         0         0         0         0         0         0         0
         0         0         0         0         0         0         0         0
         0         0         0         0         0         0         0         0
         0         0         0         0         0         0         0         0
         0         0         0         0         0         0         0         0
         0         0         0         0         0         0         0         0
         0         0         0         0         0         0         0         0
         0         0         0         0         0         0         0         0
         0         0         0         0         0         0         0         0
         0         0         0         0         0         0         0         0
         0         0         0         0         0         0         0         0
         0         0         0         0         0         0         0         0
         0         0         0         0         0         0         0         0
         0         0         0         0         0         0         0         0
         0         0         0         0         0         0         0         0
         0         0         0         0         0         0         0         0
         0         0         0         0         0         0         0         0
         0         0         0         0         0         0         0         0
         0         0         0         0         0         0         0         0
         0         0         0         0         0         0         0         0
         0         0         0         0         0         0         0         0
         0         0         0         0         0         0         0         0
         0         0         0         0         0         0         0         0
         0         0         0         0         0         0         0         0
         0         0         0         0         0         0         0         0
         0         0         0         0         0         0         0         0
         0         0         0         0         0         0         0         0
         0         0         0         0         0         0         0         0
         0         0         0         0         0         0         0         0
         0         0         0         0         0         0         0         0
         0         0         0         0         0         0         0         0
         0         0         0         0         0         0         0         0
         0         0         0         0         0         0         0         0
         0         0         0         0         0         0         0         0
         0         0         0         0         0         0         0         0
         0         0         0         0         0         0         0         0
         0         0         0         0         0         0         0         0
         0         0         0         0         0         0         0         0
         0         0         0         0         0         0         0         0
         0         0         0         0         0         0         0         0
         0         0         0         0         0         0         0         0
         0         0         0         0         0         0         0         0
         0         0         0         0         0         0         0         0
         0         0         0         0         0         0         0         0
         0         0         0         0         0         0         0         0
         0         0         0         0         0         0         0         0
         0         0         0         0         0         0         0         0
         0         0         0         0         0         0         0         0
         0         0         0         0         0         0         0         0
         0         0         0         0         0         0         0         0
         0         0         0         0         0         0         0         0
         0         0         0         0         0         0         0         0
         0         0         0         0         0         0         0         0
         0         0         0         0         0         0         0         0
         0         0         0         0         0         0         0         0
         0         0         0         0         0         0         0         0
         0         0         0         0         0         0         0         0
         0         0         0         0         0         0         0         0
         0         0         0         0         0         0         0         0
         0         0         0         0         0         0         0         0
         0         0         0         0         0         0         0         0
         0         0         0         0         0         0         0         0
         0         0         0         0         0         0         0         0
         0         0         0         0         0         0         0         0
         0         0         0         0         0         0         0         0
         0         0         0         0         0         0         0         0
         0         0         0         0         0         0         0         0
         0         0         0         0         0         0         0         0
         0         0         0         0         0         0         0         0
         0         0         0         0         0         0         0         0
         0         0         0         0         0         0         0         0
         0         0         0         0         0         0         0         0
         0         0         0         0         0         0         0         0
         0         0         0         0         0         0         0         0
         0         0         0         0         0         0         0         0
         0         0         0         0         0         0         0         0
         0         0         0         0         0         0         0         0
         0         0         0         0         0         0         0         0
         0         0         0         0         0         0         0         0
         0         0         0         0         0         0         0         0
         0         0         0         0         0         0         0         0
         0         0         0         0         0         0         0         0
         0         0         0         0         0         0         0         0
         0         0         0         0         0         0         0         0
         0         0         0         0         0         0         0         0
         0         0         0         0         0         0         0         0
         0         0         0         0         0         0         0         0
         0         0         0         0         0         0         0         0
         0         0         0         0         0         0         0         0
         0         0         0         0         0         0         0         0
         0         0         0         0         0         0         0         0
         0         0         0         0         0         0         0         0
         0         0         0         0         0         0         0         0
         0         0         0         0         0         0         0         0
         0         0         0         0         0         0         0         0
         0         0         0         0         0         0         0         0
         0         0         0         0         0         0         0         0
         0         0         0         0         0         0         0         0
         0         0         0         0         0         0         0         0
         0         0         0         0         0         0         0         0
         0         0         0         0         0         0         0         0
         0         0         0         0         0         0         0         0
         0         0         0         0         0         0         0         0
         0         0         0         0         0         0         0         0
         0         0         0         0         0         0         0         0
         0         0         0         0         0         0         0         0
         0         0         0         0         0         0         0         0
         0         0         0         0         0         0         0         0
         0         0         0         0         0         0         0         0
         0         0         0         0         0         0         0         0
         0         0         0         0         0         0         0         0
         0         0         0         0         0         0         0         0
         0         0         0         0         0         0         0         0
         0         0         0         0         0         0         0         0
         0         0         0         0         0         0         0         0
         0         0         0         0         0         0         0         0
         0         0         0         0         0         0         0         0
         0         0         0         0         0         0         0         0
         0         0         0         0         0         0         0         0
         0         0         0         0         0         0         0         0
         0         0         0         0         0         0         0         0
         0         0         0         0         0         0         0         0
         0         0         0         0         0         0         0         0
         0         0         0         0         0         0         0         0
         0         0         0         0         0         0         0         0
         0         0         0         0         0         0         0         0
         0         0         0         0         0         0         0         0
         0         0         0         0         0         0         0         0
         0         0         0         0         0         0         0         0
         0         0         0         0         0         0         0         0
         0         0         0         0         0         0         0         0
         0         0         0         0         0         0         0         0
         0         0         0         0         0         0         0         0
         0         0         0         0         0         0         0         0
         0         0         0         0         0         0         0         0
         0         0         0         0         0         0         0         0
         0         0         0         0         0         0         0         0
         0         0         0         0         0         0         0         0
         0         0         0         0         0         0         0         0
         0         0         0         0         0         0         0         0
         0         0         0         0         0         0         0         0
         0         0         0         0         0         0         0         0
         0         0         0         0         0         0         0         0
         0         0         0         0         0         0         0         0
         0         0         0         0         0         0         0         0
         0         0         0         0         0         0         0         0
         0         0         0         0         0         0         0         0
         0         0         0         0         0         0         0         0
         0         0         0         0         0         0         0         0
         0         0         0         0         0         0         0         0
         0         0         0         0         0         0         0         0
         0         0         0         0         0         0         0         0
         0         0         0         0         0         0         0         0
         0         0         0         0         0         0         0         0
         0         0         0         0         0         0         0         0
         0         0         0         0         0         0         0         0
         0         0         0         0         0         0         0         0
         0         0         0         0         0         0         0         0
         0         0         0         0         0         0         0         0
         0         0         0         0         0         0         0         0
         0         0         0         0         0         0         0         0
         0         0         0         0         0         0         0         0
         0         0         0         0         0         0         0         0
         0         0         0         0         0         0         0         0
         0         0         0         0         0         0         0         0
         0         0         0         0         0         0         0         0
         0         0         0         0         0         0         0         0
         0         0         0         0         0         0         0         0
         0         0         0         0         0         0         0         0
         0         0         0         0         0         0         0         0
         0         0         0         0         0         0         0         0
         0         0         0         0         0         0         0         0
         0         0         0         0         0         0         0         0
         0         0         0         0         0         0         0         0
         0         0         0         0         0         0         0         0
         0         0         0         0         0         0         0         0
         0         0         0         0         0         0         0         0
         0         0         0         0         0         0         0         0
         0         0         0         0         0         0         0         0
         0         0         0         0         0         0         0         0
         0         0         0         0         0         0         0         0
         0         0         0         0         0         0         0         0
         0         0         0         0         0         0         0         0
         0         0         0         0         0         0         0         0
         0         0         0         0         0         0         0         0
         0         0         0         0         0         0         0         0
         0         0         0         0         0         0         0         0
         0         0         0         0         0         0         0         0
         0         0         0         0         0         0         0         0
         0         0         0         0         0         0         0         0
         0         0         0         0         0         0         0         0
         0         0         0         0         0         0         0         0
         0         0         0         0         0         0         0         0
         0         0         0         0         0         0         0         0
         0         0         0         0         0         0         0         0
         0         0         0         0         0         0         0         0
         0         0         0         0         0         0         0         0
         0         0         0         0         0         0         0         0
         0         0         0         0         0         0         0         0
         0         0         0         0         0         0         0         0
         0         0         0         0         0         0         0         0
         0         0         0         0         0         0         0         0
         0         0         0         0         0         0         0         0
         0         0         0         0         0         0         0         0
         0         0         0         0         0         0         0         0
         0         0         0         0         0         0         0         0
         0         0         0         0         0         0         0         0
         0         0         0         0         0         0         0         0
         0         0         0         0         0         0         0         0
         0         0         0         0         0         0         0         0
         0         0         0         0         0         0         0         0
         0         0         0         0         0         0         0         0
         0         0         0         0         0         0         0         0
         0         0         0         0         0         0         0         0
         0         0         0         0         0         0         0         0
         0         0         0         0         0         0         0         0
         0         0         0         0         0         0         0         0
         0         0         0         0         0         0         0         0
         0         0         0         0         0         0         0         0
         0         0         0         0         0         0         0         0
         0         0         0         0         0         0         0         0
         0         0         0         0         0         0         0         0
         0         0         0         0         0         0         0         0
         0         0         0         0         0         0         0         0
         0         0         0         0         0         0         0         0
         0         0         0         0         0         0         0         0
         0         0         0         0         0         0         0         0
         0         0         0         0         0         0         0         0
         0         0         0         0         0         0         0         0
         0         0         0         0         0         0         0         0
         0         0         0         0         0         0         0         0
         0         0         0         0         0         0         0         0
         0         0         0         0         0         0         0         0
         0         0         0         0         0         0         0         0
         0         0         0         0         0         0         0         0
         0         0         0         0         0         0         0         0
         0         0         0         0         0         0         0         0
         0         0         0         0         0         0         0         0
         0         0         0         0         0         0         0         0
         0         0         0         0         0         0         0         0
         0         0         0         0         0         0         0         0
         0         0         0         0         0         0         0         0
         0         0         0         0         0         0         0         0
         0         0         0         0         0         0         0         0
         0         0         0         0         0         0         0         0
         0         0         0         0         0         0         0         0
         0         0         0         0         0         0         0         0
         0         0         0         0         0         0         0         0
         0         0         0         0         0         0         0         0
         0         0         0         0         0         0         0         0
         0         0         0         0         0         0         0         0
         0         0         0         0         0         0         0         0
         0         0         0         0         0         0         0         0
         0         0         0         0         0         0         0         0
         0         0         0         0         0         0         0         0
         0         0         0         0         0         0         0         0
         0         0         0         0         0         0         0         0
         0         0         0         0         0         0         0         0
         0         0         0         0         0         0         0         0
         0         0         0         0         0         0         0         0
         0         0         0         0         0         0         0         0
         0         0         0         0         0         0         0         0
         0         0         0         0         0         0         0         0
         0         0         0         0         0         0         0         0
         0         0         0         0         0         0         0         0
         0         0         0         0         0         0         0         0
         0         0         0         0         0         0         0         0
         0         0         0         0         0         0         0         0
         0         0         0         0         0         0         0         0
         0         0         0         0         0         0         0         0
         0         0         0         0         0         0         0         0
         0         0         0         0         0         0         0         0
         0         0         0         0         0         0         0         0
         0         0         0         0         0         0         0         0
         0         0         0         0         0         0         0         0
         0         0         0         0         0         0         0         0
         0         0         0         0         0         0         0         0
         0         0         0         0         0         0         0         0
         0         0         0         0         0         0         0         0
         0         0         0         0         0         0         0         0
         0         0         0         0         0         0         0         0
         0         0         0         0         0         0         0         0
         0         0         0         0         0         0         0         0
         0         0         0         0         0         0         0         0
         0         0         0         0         0         0         0         0
         0         0         0         0         0         0         0         0
         0         0         0         0         0         0         0         0
         0         0         0         0         0         0         0         0
         0         0         0         0         0         0         0         0
         0         0         0         0         0         0         0         0
         0         0         0         0         0         0         0         0
         0         0         0         0         0         0         0         0
         0         0         0         0         0         0         0         0
         0         0         0         0         0         0         0         0
         0         0         0         0         0         0         0         0
         0         0         0         0         0         0         0         0
         0         0         0         0         0         0         0         0
         0         0         0         0         0         0         0         0
         0         0         0         0         0         0         0         0
         0         0         0         0         0         0         0         0
         0         0         0         0         0         0         0         0
         0         0         0         0         0         0         0         0
         0         0         0         0         0         0         0         0
         0         0         0         0         0         0         0         0
         0         0         0         0         0         0         0         0
         0         0         0         0         0         0         0         0
         0         0         0         0         0         0         0         0
         0         0         0         0         0         0         0         0
         0         0         0         0         0         0         0         0
         0         0         0         0         0         0         0         0
         0         0         0         0         0         0         0         0
         0         0         0         0         0         0         0         0
         0         0         0         0         0         0         0         0
         0         0         0         0         0         0         0         0
         0         0         0         0         0         0         0         0
         0         0         0         0         0         0         0         0
         0         0         0         0         0         0         0         0
         0         0         0         0         0         0         0         0
         0         0         0         0         0         0         0         0
         0         0         0         0         0         0         0         0
         0         0         0         0         0         0         0         0
         0         0         0         0         0         0         0         0
         0         0         0         0         0         0         0         0
         0         0         0         0         0         0         0         0
         0         0         0         0         0         0         0         0
         0         0         0         0         0         0         0         0
         0         0         0         0         0         0         0         0
         0         0         0         0         0         0         0         0
         0         0         0         0         0         0         0         0
         0         0         0         0         0         0         0         0
         0         0         0         0         0         0         0         0
         0         0         0         0         0         0         0         0
         0         0         0         0         0         0         0         0
         0         0         0         0         0         0         0         0
         0         0         0         0         0         0         0         0
         0         0         0         0         0         0         0         0
         0         0         0         0         0         0         0         0
         0         0         0         0         0         0         0         0
         0         0         0         0         0         0         0         0
         0         0         0         0         0         0         0         0
         0         0         0         0         0         0         0         0
         0         0         0         0         0         0         0         0
         0         0         0         0         0         0         0         0
         0         0         0         0         0         0         0         0
         0         0         0         0         0         0         0         0
         0         0         0         0         0         0         0         0
         0         0         0         0         0         0         0         0
         0         0         0         0         0         0         0         0
         0         0         0         0         0         0         0         0
         0         0         0         0         0         0         0         0
         0         0         0         0         0         0         0         0
         0         0         0         0         0         0         0         0
         0         0         0         0         0         0         0         0
         0         0         0         0         0         0         0         0
         0         0         0         0         0         0         0         0
         0         0         0         0         0         0         0         0
         0         0         0         0         0         0         0         0
         0         0         0         0         0         0         0         0
         0         0         0         0         0         0         0         0
         0         0         0         0         0         0         0         0
         0         0         0         0         0         0         0         0
         0         0         0         0         0         0         0         0
         0         0         0         0         0         0         0         0
         0         0         0         0         0         0         0         0
         0         0         0         0         0         0         0         0
         0         0         0         0         0         0         0         0
         0         0         0         0         0         0         0         0
         0         0         0         0         0         0         0         0
         0         0         0         0         0         0         0         0
         0         0         0         0         0         0         0         0
         0         0         0         0         0         0         0         0
         0         0         0         0         0         0         0         0
         0         0         0         0         0         0         0         0
         0         0         0         0         0         0         0         0
         0         0         0         0         0         0         0         0
         0         0         0         0         0         0         0         0
         0         0         0         0         0         0         0         0
         0         0         0         0         0         0         0         0
         0         0         0         0         0         0         0         0
         0         0         0         0         0         0         0         0
         0         0         0         0         0         0         0         0
         0         0         0         0         0         0         0         0
         0         0         0         0         0         0         0         0
         0         0         0         0         0         0         0         0
         0         0         0         0         0         0         0         0
         0         0         0         0         0         0         0         0
         0         0         0         0         0         0         0         0
         0         0         0         0         0         0         0         0
         0         0         0         0         0         0         0         0
         0         0         0         0         0         0         0         0
         0         0         0         0         0         0         0         0
         0         0         0         0         0         0         0         0
         0         0         0         0         0         0         0         0
         0         0         0         0         0         0         0         0
         0         0         0         0         0         0         0         0
         0         0         0         0         0         0         0         0
         0         0         0         0         0         0         0         0
         0         0         0         0         0         0         0         0
         0         0         0         0         0         0         0         0
         0         0         0         0         0         0         0         0
         0         0         0         0         0         0         0         0
         0         0         0         0         0         0         0         0
         0         0         0         0         0         0         0         0
         0         0         0         0         0         0         0         0
         0         0         0         0         0         0         0         0
         0         0         0         0         0         0         0         0
         0         0         0         0         0         0         0         0
         0         0         0         0         0         0         0         0
         0         0         0         0         0         0         0         0
         0         0         0         0         0         0         0         0
         0         0         0         0         0         0         0         0
         0         0         0         0         0         0         0         0
         0         0         0         0         0         0         0         0
         0         0         0         0         0         0         0         0
         0         0         0         0         0         0         0         0
         0         0         0         0         0         0         0         0
         0         0         0         0         0         0         0         0
         0         0         0         0         0         0         0         0
         0         0         0         0         0         0         0         0
         0         0         0         0         0         0         0         0
         0         0         0         0         0         0         0         0
         0         0         0         0         0         0         0         0
         0         0         0         0         0         0         0         0
         0         0         0         0         0         0         0         0
         0         0         0         0         0         0         0         0
         0         0         0         0         0         0         0         0
         0         0         0         0         0         0         0         0
         0         0         0         0         0         0         0         0
         0         0         0         0         0         0         0         0
         0         0         0         0         0         0         0         0
         0         0         0         0         0         0         0         0
         0         0         0         0         0         0         0         0
         0         0         0         0         0         0         0         0
         0         0         0         0         0         0         0         0
         0         0         0         0         0         0         0         0
         0         0         0         0         0         0         0         0
         0         0         0         0         0         0         0         0
         0         0         0         0         0         0         0         0
         0         0         0         0         0         0         0         0
         0         0         0         0         0         0         0         0
         0         0         0         0         0         0         0         0
         0         0         0         0         0         0         0         0
         0         0         0         0         0         0         0         0
         0         0         0         0         0         0         0         0
         0         0         0         0         0         0         0         0
         0         0         0         0         0         0         0         0
         0         0         0         0         0         0         0         0
         0         0         0         0         0         0         0         0
         0         0         0         0         0         0         0         0
         0         0         0         0         0         0         0         0
         0         0         0         0         0         0         0         0
         0         0         0         0         0         0         0         0
         0         0         0         0         0         0         0         0
         0         0         0         0         0         0         0         0
         0         0         0         0         0         0         0         0
         0         0         0         0         0         0         0         0
         0         0         0         0         0         0         0         0
         0         0         0         0         0         0         0         0
         0         0         0         0         0         0         0         0
         0         0         0         0         0         0         0         0
         0         0         0         0         0         0         0         0
         0         0         0         0         0         0         0         0
         0         0         0         0         0         0         0         0
         0         0         0         0         0         0         0         0
         0         0         0         0         0         0         0         0
         0         0         0         0         0         0         0         0
         0         0         0         0         0         0         0         0
         0         0         0         0         0         0         0         0
         0         0         0         0         0         0         0         0
         0         0         0         0         0         0         0         0
         0         0         0         0         0         0         0         0
         0         0         0         0         0         0         0         0
         0         0         0         0         0         0         0         0
         0         0         0         0         0         0         0         0
         0         0         0         0         0         0         0         0
         0         0         0         0         0         0         0         0
         0         0         0         0         0         0         0         0
         0         0         0         0         0         0         0         0
         0         0         0         0         0         0         0         0
         0         0         0         0         0         0         0         0
         0         0         0         0         0         0         0         0
         0         0         0         0         0         0         0         0
         0         0         0         0         0         0         0         0
         0         0         0         0         0         0         0         0
         0         0         0         0         0         0         0         0
         0         0         0         0         0         0         0         0
         0         0         0         0         0         0         0         0
         0         0         0         0         0         0         0         0
         0         0         0         0         0         0         0         0
         0         0         0         0         0         0         0         0
         0         0         0         0         0         0         0         0
         0         0         0         0         0         0         0         0
         0         0         0         0         0         0         0         0
         0         0         0         0         0         0         0         0
         0         0         0         0         0         0         0         0
         0         0         0         0         0         0         0         0
         0         0         0         0         0         0         0         0
         0         0         0         0         0         0         0         0
         0         0         0         0         0         0         0         0
         0         0         0         0         0         0         0         0
         0         0         0         0         0         0         0         0
         0         0         0         0         0         0         0         0
         0         0         0         0         0         0         0         0
         0         0         0         0         0         0         0         0
         0         0         0         0         0         0         0         0
         0         0         0         0         0         0         0         0
         0         0         0         0         0         0         0         0
         0         0         0         0         0         0         0         0
         0         0         0         0         0         0         0         0
         0         0         0         0         0         0         0         0
         0         0         0         0         0         0         0         0
         0         0         0         0         0         0         0         0
         0         0         0         0         0         0         0         0
         0         0         0         0         0         0         0         0
         0         0         0         0         0         0         0         0
         0         0         0         0         0         0         0         0
         0         0         0         0         0         0         0         0
         0         0         0         0         0         0         0         0
         0         0         0         0         0         0         0         0
         0         0         0         0         0         0         0         0
         0         0         0         0         0         0         0         0
         0         0         0         0         0         0         0         0
         0         0         0         0         0         0         0         0
         0         0         0         0         0         0         0         0
         0         0         0         0         0         0         0         0
         0         0         0         0         0         0         0         0
         0         0         0         0         0         0         0         0
         0         0         0         0         0         0         0         0
         0         0         0         0         0         0         0         0
         0         0         0         0         0         0         0         0
         0         0         0         0         0         0         0         0
         0         0         0         0         0         0         0         0
         0         0         0         0         0         0         0         0
         0         0         0         0         0         0         0         0
         0         0         0         0         0         0         0         0
         0         0         0         0         0         0         0         0
         0         0         0         0         0         0         0         0
         0         0         0         0         0         0         0         0
         0         0         0         0         0         0         0         0
         0         0         0         0         0         0         0         0
         0         0         0         0         0         0         0         0
         0         0         0         0         0         0         0         0
         0         0         0         0         0         0         0         0
         0         0         0         0         0         0         0         0
         0         0         0         0         0         0         0         0
         0         0         0         0         0         0         0         0
         0         0         0         0         0         0         0         0
         0         0         0         0         0         0         0         0
         0         0         0         0         0         0         0         0
         0         0         0         0         0         0         0         0
         0         0         0         0         0         0         0         0
         0         0         0         0         0         0         0         0
         0         0         0         0         0         0         0         0
         0         0         0         0         0         0         0         0
         0         0         0         0         0         0         0         0
         0         0         0         0         0         0         0         0
         0         0         0         0         0         0         0         0
         0         0         0         0         0         0         0         0
         0         0         0         0         0         0         0         0
         0         0         0         0         0         0         0         0
         0         0         0         0         0         0         0         0
         0         0         0         0         0         0         0         0
         0         0         0         0         0         0         0         0
         0         0         0         0         0         0         0         0
         0         0         0         0         0         0         0         0
         0         0         0         0         0         0         0         0
         0         0         0         0         0         0         0         0
         0         0         0         0         0         0         0         0
         0         0         0         0         0         0         0         0
         0         0         0         0         0         0         0         0
         0         0         0         0         0         0         0         0
         0         0         0         0         0         0         0         0
         0         0         0         0         0         0         0         0
         0         0         0         0         0         0         0         0
         0         0         0         0         0         0         0         0
         0         0         0         0         0         0         0         0
         0         0         0         0         0         0         0         0
         0         0         0         0         0         0         0         0
         0         0         0         0         0         0         0         0
         0         0         0         0         0         0         0         0
         0         0         0         0         0         0         0         0
         0         0         0         0         0         0         0         0
         0         0         0         0         0         0         0         0
         0         0         0         0         0         0         0         0
         0         0         0         0         0         0         0         0
         0         0         0         0         0         0         0         0
         0         0         0         0         0         0         0         0
         0         0         0         0         0         0         0         0
         0         0         0         0         0         0         0         0
         0         0         0         0         0         0         0         0
         0         0         0         0         0         0         0         0
         0         0         0         0         0         0         0         0
         0         0         0         0         0         0         0         0
         0         0         0         0         0         0         0         0
         0         0         0         0         0         0         0         0
         0         0         0         0         0         0         0         0
         0         0         0         0         0         0         0         0
         0         0         0         0         0         0         0         0
         0         0         0         0         0         0         0         0
         0         0         0         0         0         0         0         0
         0         0         0         0         0         0         0         0
         0         0         0         0         0         0         0         0
         0         0         0         0         0         0         0         0
         0         0         0         0         0         0         0         0
         0         0         0         0         0         0         0         0
         0         0         0         0         0         0         0         0
         0         0         0         0         0         0         0         0
         0         0         0         0         0         0         0         0
         0         0         0         0         0         0         0         0
         0         0         0         0         0         0         0         0
         0         0         0         0         0         0         0         0
         0         0         0         0         0         0         0         0
         0         0         0         0         0         0         0         0
         0         0         0         0         0         0         0         0
         0         0         0         0         0         0         0         0
         0         0         0         0         0         0         0         0
         0         0         0         0         0         0         0         0
         0         0         0         0         0         0         0         0
         0         0         0         0         0         0         0         0
         0         0         0         0         0         0         0         0
         0         0         0         0         0         0         0         0
         0         0         0         0         0         0         0         0
         0         0         0         0         0         0         0         0
         0         0         0         0         0         0         0         0
         0         0         0         0         0         0         0         0
         0         0         0         0         0         0         0         0
         0         0         0         0         0         0         0         0
         0         0         0         0         0         0         0         0
         0         0         0         0         0         0         0         0
         0         0         0         0         0         0         0         0
         0         0         0         0         0         0         0         0
         0         0         0         0         0         0         0         0
         0         0         0         0         0         0         0         0
         0         0         0         0         0         0         0         0
         0         0         0         0         0         0         0         0
         0         0         0         0         0         0         0         0
         0         0         0         0         0         0         0         0
         0         0         0         0         0         0         0         0
         0         0         0         0         0         0         0         0
         0         0         0         0         0         0         0         0
         0         0         0         0         0         0         0         0
         0         0         0         0         0         0         0         0
         0         0         0         0         0         0         0         0
         0         0         0         0         0         0         0         0
         0         0         0         0         0         0         0         0
         0         0         0         0         0         0         0         0
         0         0         0         0         0         0         0         0
         0         0         0         0         0         0         0         0
         0         0         0         0         0         0         0         0
         0         0         0         0         0         0         0         0
         0         0         0         0         0         0         0         0
         0         0         0         0         0         0         0         0
         0         0         0         0         0         0         0         0
         0         0         0         0         0         0         0         0
         0         0         0         0         0         0         0         0
         0         0         0         0         0         0         0         0
         0         0         0         0         0         0         0         0
         0         0         0         0         0         0         0         0
         0         0         0         0         0         0         0         0
         0         0         0         0         0         0         0         0
         0         0         0         0         0         0         0         0
         0         0         0         0         0         0         0         0
         0         0         0         0         0         0         0         0
         0         0         0         0         0         0         0         0
         0         0         0         0         0         0         0         0
         0         0         0         0         0         0         0         0
         0         0         0         0         0         0         0         0
         0         0         0         0         0         0         0         0
         0         0         0         0         0         0         0         0
         0         0         0         0         0         0         0         0
         0         0         0         0         0         0         0         0
         0         0         0         0         0         0         0         0
         0         0         0         0         0         0         0         0
         0         0         0         0         0         0         0         0
         0         0         0         0         0         0         0         0
         0         0         0         0         0         0         0         0
         0         0         0         0         0         0         0         0
         0         0         0         0         0         0         0         0
         0         0         0         0         0         0         0         0
         0         0         0         0         0         0         0         0
         0         0         0         0         0         0         0         0
         0         0         0         0         0         0         0         0
         0         0         0         0         0         0         0         0
         0         0         0         0         0         0         0         0
         0         0         0         0         0         0         0         0
         0         0         0         0         0         0         0         0
         0         0         0         0         0         0         0         0
         0         0         0         0         0         0         0         0
         0         0         0         0         0         0         0         0
         0         0         0         0         0         0         0         0
         0         0         0         0         0         0         0         0
         0         0         0         0         0         0         0         0
         0         0         0         0         0         0         0         0
         0         0         0         0         0         0         0         0
         0         0         0         0         0         0         0         0
         0         0         0         0         0         0         0         0
         0         0         0         0         0         0         0         0
         0         0         0         0         0         0         0         0
         0         0         0         0         0         0         0         0
         0         0         0         0         0         0         0         0
         0         0         0         0         0         0         0         0
         0         0         0         0         0         0         0         0
         0         0         0         0         0         0         0         0
         0         0         0         0         0         0         0         0
         0         0         0         0         0         0         0         0
         0         0         0         0         0         0         0         0
         0         0         0         0         0         0         0         0
         0         0         0         0         0         0         0         0
         0         0         0         0         0         0         0         0
         0         0         0         0         0         0         0         0
         0         0         0         0         0         0         0         0
         0         0         0         0         0         0         0         0
         0         0         0         0         0         0         0         0
         0         0         0         0         0         0         0         0
         0         0         0         0         0         0         0         0
         0         0         0         0         0         0         0         0
         0         0         0         0         0         0         0         0
         0         0         0         0         0         0         0         0
         0         0         0         0         0         0         0         0
         0         0         0         0         0         0         0         0
         0         0         0         0         0         0         0         0
         0         0         0         0         0         0         0         0
         0         0         0         0         0         0         0         0
         0         0         0         0         0         0         0         0
         0         0         0         0         0         0         0         0
         0         0         0         0         0         0         0         0
         0         0         0         0         0         0         0         0
         0         0         0         0         0         0         0         0
         0         0         0         0         0         0         0         0
         0         0         0         0         0         0         0         0
         0         0         0         0         0         0         0         0
         0         0         0         0         0         0         0         0
         0         0         0         0         0         0         0         0
         0         0         0         0         0         0         0         0
         0         0         0         0         0         0         0         0
         0         0         0         0         0         0         0         0
         0         0         0         0         0         0         0         0
         0         0         0         0         0         0         0         0
         0         0         0         0         0         0         0         0
         0         0         0         0         0         0         0         0
         0         0         0         0         0         0         0         0
         0         0         0         0         0         0         0         0
         0         0         0         0         0         0         0         0
         0         0         0         0         0         0         0         0
         0         0         0         0         0         0         0         0
         0         0         0         0         0         0         0         0
         0         0         0         0         0         0         0         0
         0         0         0         0         0         0         0         0
         0         0         0         0         0         0         0         0
         0         0         0         0         0         0         0         0
         0         0         0         0         0         0         0         0
         0         0         0         0         0         0         0         0
         0         0         0         0         0         0         0         0
         0         0         0         0         0         0         0         0
         0         0         0         0         0         0         0         0
         0         0         0         0         0         0         0         0
         0         0         0         0         0         0         0         0
         0         0         0         0         0         0         0         0
         0         0         0         0         0         0         0         0
         0         0         0         0         0         0         0         0
         0         0         0         0         0         0         0         0
         0         0         0         0         0         0         0         0
         0         0         0         0         0         0         0         0
         0         0         0         0         0         0         0         0
         0         0         0         0         0         0         0         0
         0         0         0         0         0         0         0         0
         0         0         0         0         0         0         0         0
         0         0         0         0         0         0         0         0
         0         0         0         0         0         0         0         0
         0         0         0         0         0         0         0         0
         0         0         0         0         0         0         0         0
         0         0         0         0         0         0         0         0
         0         0         0         0         0         0         0         0
         0         0         0         0         0         0         0         0
         0         0         0         0         0         0         0         0
         0         0         0         0         0         0         0         0
         0         0         0         0         0         0         0         0
         0         0         0         0         0         0         0         0
         0         0         0         0         0         0         0         0
         0         0         0         0         0         0         0         0
         0         0         0         0         0         0         0         0
         0         0         0         0         0         0         0         0
         0         0         0         0         0         0         0         0
         0         0         0         0         0         0         0         0
         0         0         0         0         0         0         0         0
         0         0         0         0         0         0         0         0
         0         0         0         0         0         0         0         0
         0         0         0         0         0         0         0         0
         0         0         0         0         0         0         0         0
         0         0         0         0         0         0         0         0
         0         0         0         0         0         0         0         0
         0         0         0         0         0         0         0         0
         0         0         0         0         0         0         0         0
         0         0         0         0         0         0         0         0
         0         0         0         0         0         0         0         0
         0         0         0         0         0         0         0         0
         0         0         0         0         0         0         0         0
         0         0         0         0         0         0         0         0
         0         0         0         0         0         0         0         0
         0         0         0         0         0         0         0         0
         0         0         0         0         0         0         0         0
         0         0         0         0         0         0         0         0
         0         0         0         0         0         0         0         0
         0         0         0         0         0         0         0         0
         0         0         0         0         0         0         0         0
         0         0         0         0         0         0         0         0
         0         0         0         0         0         0         0         0
         0         0         0         0         0         0         0         0
         0         0         0         0         0         0         0         0
         0         0         0         0         0         0         0         0
         0         0         0         0         0         0         0         0
         0         0         0         0         0         0         0         0
         0         0         0         0         0         0         0         0
         0         0         0         0         0         0         0         0
         0         0         0         0         0         0         0         0
         0         0         0         0         0         0         0         0
         0         0         0         0         0         0         0         0
         0         0         0         0         0         0         0         0
         0         0         0         0         0         0         0         0
         0         0         0         0         0         0         0         0
         0         0         0         0         0         0         0         0
         0         0         0         0         0         0         0         0
         0         0         0         0         0         0         0         0
         0         0         0         0         0         0         0         0
         0         0         0         0         0         0         0         0
         0         0         0         0         0         0         0         0
         0         0         0         0         0         0         0         0
         0         0         0         0         0         0         0         0
         0         0         0         0         0         0         0         0
         0         0         0         0         0         0         0         0
         0         0         0         0         0         0         0         0
         0         0         0         0         0         0         0         0
         0         0         0         0         0         0         0         0
         0         0         0         0         0         0         0         0
         0         0         0         0         0         0         0         0
         0         0         0         0         0         0         0         0
         0         0         0         0         0         0         0         0
         0         0         0         0         0         0         0         0
         0         0         0         0         0         0         0         0
         0         0         0         0         0         0         0         0
         0         0         0         0         0         0         0         0
         0         0         0         0         0         0         0         0
         0         0         0         0         0         0         0         0
         0         0         0         0         0         0         0         0
         0         0         0         0         0         0         0         0
         0         0         0         0         0         0         0         0
         0         0         0         0         0         0         0         0
         0         0         0         0         0         0         0         0
         0         0         0         0         0         0         0         0
         0         0         0         0         0         0         0         0
         0         0         0         0         0         0         0         0
         0         0         0         0         0         0         0         0
         0         0         0         0         0         0         0         0
         0         0         0         0         0         0         0         0
         0         0         0         0         0         0         0         0
         0         0         0         0         0         0         0         0
         0         0         0         0         0         0         0         0
         0         0         0         0         0         0         0         0
         0         0         0         0         0         0         0         0
         0         0         0         0         0         0         0         0
         0         0         0         0         0         0         0         0
         0         0         0         0         0         0         0         0
         0         0         0         0         0         0         0         0
         0         0         0         0         0         0         0         0
         0         0         0         0         0         0         0         0
         0         0         0         0         0         0         0         0
         0         0         0         0         0         0         0         0
         0         0         0         0         0         0         0         0
         0         0         0         0         0         0         0         0
         0         0         0         0         0         0         0         0
         0         0         0         0         0         0         0         0
         0         0         0         0         0         0         0         0
         0         0         0         0         0         0         0         0
         0         0         0         0         0         0         0         0
         0         0         0         0         0         0         0         0
         0         0         0         0         0         0         0         0
         0         0         0         0         0         0         0         0
         0         0         0         0         0         0         0         0
         0         0         0         0         0         0         0         0
         0         0         0         0         0         0         0         0
         0         0         0         0         0         0         0         0
         0         0         0         0         0         0         0         0
         0         0         0         0         0         0         0         0
         0         0         0         0         0         0         0         0
         0         0         0         0         0         0         0         0
         0         0         0         0         0         0         0         0
         0         0         0         0         0         0         0         0
         0         0         0         0         0         0         0         0
         0         0         0         0         0         0         0         0
         0         0         0         0         0         0         0         0
         0         0         0         0         0         0         0         0
         0         0         0         0         0         0         0         0
         0         0         0         0         0         0         0         0
         0         0         0         0         0         0         0         0
         0         0         0         0         0         0         0         0
         0         0         0         0         0         0         0         0
         0         0         0         0         0         0         0         0
         0         0         0         0         0         0         0         0
         0         0         0         0         0         0         0         0
         0         0         0         0         0         0         0         0
         0         0         0         0         0         0         0         0
         0         0         0         0         0         0         0         0
         0         0         0         0         0         0         0         0
         0         0         0         0         0         0         0         0
         0         0         0         0         0         0         0         0
         0         0         0         0         0         0         0         0
         0         0         0         0         0         0         0         0
         0         0         0         0         0         0         0         0
         0         0         0         0         0         0         0         0
         0         0         0         0         0         0         0         0
         0         0         0         0         0         0         0         0
         0         0         0         0         0         0         0         0
         0         0         0         0         0         0         0         0
         0         0         0         0         0         0         0         0
         0         0         0         0         0         0         0         0
         0         0         0         0         0         0         0         0
         0         0         0         0         0         0         0         0
         0         0         0         0         0         0         0         0
         0         0         0         0         0         0         0         0
         0         0         0         0         0         0         0         0
         0         0         0         0         0         0         0         0
         0         0         0         0         0         0         0         0
         0         0         0         0         0         0         0         0
         0         0         0         0         0         0         0         0
         0         0         0         0         0         0         0         0
         0         0         0         0         0         0         0         0
         0         0         0         0         0         0         0         0
         0         0         0         0         0         0         0         0
         0         0         0         0         0         0         0         0
         0         0         0         0         0         0         0         0
         0         0         0         0         0         0         0         0
         0         0         0         0         0         0         0         0
         0         0         0         0         0         0         0         0
         0         0         0         0         0         0         0         0
         0         0         0         0         0         0         0         0
         0         0         0         0         0         0         0         0
         0         0         0         0         0         0         0         0
         0         0         0         0         0         0         0         0
         0         0         0         0         0         0         0         0
         0         0         0         0         0         0         0         0
         0         0         0         0         0         0         0         0
         0         0         0         0         0         0         0         0
         0         0         0         0         0         0         0         0
         0         0         0         0         0         0         0         0
         0         0         0         0         0         0         0         0
         0         0         0         0         0         0         0         0
         0         0         0         0         0         0         0         0
         0         0         0         0         0         0         0         0
         0         0         0         0         0         0         0         0
         0         0         0         0         0         0         0         0
         0         0         0         0         0         0         0         0
         0         0         0         0         0         0         0         0
         0         0         0         0         0         0         0         0
         0         0         0         0         0         0         0         0
         0         0         0         0         0         0         0         0
         0         0         0         0         0         0         0         0
         0         0         0         0         0         0         0         0
         0         0         0         0         0         0         0         0
         0         0         0         0         0         0         0         0
         0         0         0         0         0         0         0         0
         0         0         0         0         0         0         0         0
         0         0         0         0         0         0         0         0
         0         0         0         0         0         0         0         0
         0         0         0         0         0         0         0         0
         0         0         0         0         0         0         0         0
         0         0         0         0         0         0         0         0
         0         0         0         0         0         0         0         0
         0         0         0         0         0         0         0         0
         0         0         0         0         0         0         0         0
         0         0         0         0         0         0         0         0
         0         0         0         0         0         0         0         0
         0         0         0         0         0         0         0         0
         0         0         0         0         0         0         0         0
         0         0         0         0         0         0         0         0
         0         0         0         0         0         0         0         0
         0         0         0         0         0         0         0         0
         0         0         0         0         0         0         0         0
         0         0         0         0         0         0         0         0
         0         0         0         0         0         0         0         0
         0         0         0         0         0         0         0         0
         0         0         0         0         0         0         0         0
         0         0         0         0         0         0         0         0
         0         0         0         0         0         0         0         0
         0         0         0         0         0         0         0         0
         0         0         0         0         0         0         0         0
         0         0         0         0         0         0         0         0
         0         0         0         0         0         0         0         0
         0         0         0         0         0         0         0         0
         0         0         0         0         0         0         0         0
         0         0         0         0         0         0         0         0
         0         0         0         0         0         0         0         0
         0         0         0         0         0         0         0         0
         0         0         0         0         0         0         0         0
         0         0         0         0         0         0         0         0
         0         0         0         0         0         0         0         0
         0         0         0         0         0         0         0         0
         0         0         0         0         0         0         0         0
         0         0         0         0         0         0         0         0
         0         0         0         0         0         0         0         0
         0         0         0         0         0         0         0         0
         0         0         0         0         0         0         0         0
         0         0         0         0         0         0         0         0
         0         0         0         0         0         0         0         0
         0         0         0         0         0         0         0         0
         0         0         0         0         0         0         0         0
         0         0         0         0         0         0         0         0
         0         0         0         0         0         0         0         0
         0         0         0         0         0         0         0         0
         0         0         0         0         0         0         0         0
         0         0         0         0         0         0         0         0
         0         0         0         0         0         0         0         0
         0         0         0         0         0         0         0         0
         0         0         0         0         0         0         0         0
         0         0         0         0         0         0         0         0
         0         0         0         0         0         0         0         0
         0         0         0         0         0         0         0         0
         0         0         0         0         0         0         0         0
         0         0         0         0         0         0         0         0
         0         0         0         0         0         0         0         0
         0         0         0         0         0         0         0         0
         0         0         0         0         0         0         0         0
         0         0         0         0         0         0         0         0
         0         0         0         0         0         0         0         0
         0         0         0         0         0         0         0         0
         0         0         0         0         0         0         0         0
         0         0         0         0         0         0         0         0
         0         0         0         0         0         0         0         0
         0         0         0         0         0         0         0         0
         0         0         0         0         0         0         0         0
         0         0         0         0         0         0         0         0
         0         0         0         0         0         0         0         0
         0         0         0         0         0         0         0         0
         0         0         0         0         0         0         0         0
         0         0         0         0         0         0         0         0
         0         0         0         0         0         0         0         0
         0         0         0         0         0         0         0         0
         0         0         0         0         0         0         0         0
         0         0         0         0         0         0         0         0
         0         0         0         0         0         0         0         0
         0         0         0         0         0         0         0         0
         0         0         0         0         0         0         0         0
         0         0         0         0         0         0         0         0
         0         0         0         0         0         0         0         0
         0         0         0         0         0         0         0         0
         0         0         0         0         0         0         0         0
         0         0         0         0         0         0         0         0
         0         0         0         0         0         0         0         0
         0         0         0         0         0         0         0         0
         0         0         0         0         0         0         0         0
         0         0         0         0         0         0         0         0
         0         0         0         0         0         0         0         0
         0         0         0         0         0         0         0         0
         0         0         0         0         0         0         0         0
         0         0         0         0         0         0         0         0
         0         0         0         0         0         0         0         0
         0         0         0         0         0         0         0         0
         0         0         0         0         0         0         0         0
         0         0         0         0         0         0         0         0
         0         0         0         0         0         0         0         0
         0         0         0         0         0         0         0         0
         0         0         0         0         0         0         0         0
         0         0         0         0         0         0         0         0
         0         0         0         0         0         0         0         0
         0         0         0         0         0         0         0         0
         0         0         0         0         0         0         0         0
         0         0         0         0         0         0         0         0
         0         0         0         0         0         0         0         0
         0         0         0         0         0         0         0         0
         0         0         0         0         0         0         0         0
         0         0         0         0         0         0         0         0
         0         0         0         0         0         0         0         0
         0         0         0         0         0         0         0         0
         0         0         0         0         0         0         0         0
         0         0         0         0         0         0         0         0
         0         0         0         0         0         0         0         0
         0         0         0         0         0         0         0         0
         0         0         0         0         0         0         0         0
         0         0         0         0         0         0         0         0
         0         0         0         0         0         0         0         0
         0         0         0         0         0         0         0         0
         0         0         0         0         0         0         0         0
         0         0         0         0         0         0         0         0
         0         0         0         0         0         0         0         0
         0         0         0         0         0         0         0         0
         0         0         0         0         0         0         0         0
         0         0         0         0         0         0         0         0
         0         0         0         0         0         0         0         0
         0         0         0         0         0         0         0         0
         0         0         0         0         0         0         0         0
         0         0         0         0         0         0         0         0
         0         0         0         0         0         0         0         0
         0         0         0         0         0         0         0         0
         0         0         0         0         0         0         0         0
         0         0         0         0         0         0         0         0
         0         0         0         0         0         0         0         0
         0         0         0         0         0         0         0         0
         0         0         0         0         0         0         0         0
         0         0         0         0         0         0         0         0
         0         0         0         0         0         0         0         0
         0         0         0         0         0         0         0         0
         0         0         0         0         0         0         0         0
         0         0         0         0         0         0         0         0
         0         0         0         0         0         0         0         0
         0         0         0         0         0         0         0         0
         0         0         0         0         0         0         0         0
         0         0         0         0         0         0         0         0
         0         0         0         0         0         0         0         0
         0         0         0         0         0         0         0         0
         0         0         0         0         0         0         0         0
         0         0         0         0         0         0         0         0
         0         0         0         0         0         0         0         0
         0         0         0         0         0         0         0         0
         0         0         0         0         0         0         0         0
         0         0         0         0         0         0         0         0
         0         0         0         0         0         0         0         0
         0         0         0         0         0         0         0         0
         0         0         0         0         0         0         0         0
         0         0         0         0         0         0         0         0
         0         0         0         0         0         0         0         0
         0         0         0         0         0         0         0         0
         0         0         0         0         0         0         0         0
         0         0         0         0         0         0         0         0
         0         0         0         0         0         0         0         0
         0         0         0         0         0         0         0         0
         0         0         0         0         0         0         0         0
         0         0         0         0         0         0         0         0
         0         0         0         0         0         0         0         0
         0         0         0         0         0         0         0         0
         0         0         0         0         0         0         0         0
         0         0         0         0         0         0         0         0
         0         0         0         0         0         0         0         0
         0         0         0         0         0         0         0         0
         0         0         0         0         0         0         0         0
         0         0         0         0         0         0         0         0
         0         0         0         0         0         0         0         0
         0         0         0         0         0         0         0         0
         0         0         0         0         0         0         0         0
         0         0         0         0         0         0         0         0
         0         0         0         0         0         0         0         0
         0         0         0         0         0         0         0         0
         0         0         0         0         0         0         0         0
         0         0         0         0         0         0         0         0
         0         0         0         0         0         0         0         0
         0         0         0         0         0         0         0         0
         0         0         0         0         0         0         0         0
         0         0         0         0         0         0         0         0
         0         0         0         0         0         0         0         0
         0         0         0         0         0         0         0         0
         0         0         0         0         0         0         0         0
         0         0         0         0         0         0         0         0
         0         0         0         0         0         0         0         0
         0         0         0         0         0         0         0         0
         0         0         0         0         0         0         0         0
         0         0         0         0         0         0         0         0
         0         0         0         0         0         0         0         0
         0         0         0         0         0         0         0         0
         0         0         0         0         0         0         0         0
         0         0         0         0         0         0         0         0
         0         0         0         0         0         0         0         0
         0         0         0         0         0         0         0         0
         0         0         0         0         0         0         0         0
         0         0         0         0         0         0         0         0
         0         0         0         0         0         0         0         0
         0         0         0         0         0         0         0         0
         0         0         0         0         0         0         0         0
         0         0         0         0         0         0         0         0
         0         0         0         0         0         0         0         0
         0         0         0         0         0         0         0         0
         0         0         0         0         0         0         0         0
         0         0         0         0         0         0         0         0
         0         0         0         0         0         0         0         0
         0         0         0         0         0         0         0         0
         0         0         0         0         0         0         0         0
         0         0         0         0         0         0         0         0
         0         0         0         0         0         0         0         0
         0         0         0         0         0         0         0         0
         0         0         0         0         0         0         0         0
         0         0         0         0         0         0         0         0
         0         0         0         0         0         0         0         0
         0         0         0         0         0         0         0         0
         0         0         0         0         0         0         0         0
         0         0         0         0         0         0         0         0
         0         0         0         0         0         0         0         0
         0         0         0         0         0         0         0         0
         0         0         0         0         0         0         0         0
         0         0         0         0         0         0         0         0
         0         0         0         0         0         0         0         0
         0         0         0         0         0         0         0         0
         0         0         0         0         0         0         0         0
         0         0         0         0         0         0         0         0
         0         0         0         0         0         0         0         0
         0         0         0         0         0         0         0         0
         0         0         0         0         0         0         0         0
         0         0         0         0         0         0         0         0
         0         0         0         0         0         0         0         0
         0         0         0         0         0         0         0         0
         0         0         0         0         0         0         0         0
         0         0         0         0         0         0         0         0
         0         0         0         0         0         0         0         0
         0         0         0         0         0         0         0         0
         0         0         0         0         0         0         0         0
         0         0         0         0         0         0         0         0
         0         0         0         0         0         0         0         0
         0         0         0         0         0         0         0         0
         0         0         0         0         0         0         0         0
         0         0         0         0         0         0         0         0
         0         0         0         0         0         0         0         0
         0         0         0         0         0         0         0         0
         0         0         0         0         0         0         0         0
         0         0         0         0         0         0         0         0
         0         0         0         0         0         0         0         0
         0         0         0         0         0         0         0         0
         0         0         0         0         0         0         0         0
         0         0         0         0         0         0         0         0
         0         0         0         0         0         0         0         0
         0         0         0         0         0         0         0         0
         0         0         0         0         0         0         0         0
         0         0         0         0         0         0         0         0
         0         0         0         0         0         0         0         0
         0         0         0         0         0         0         0         0
         0         0         0         0         0         0         0         0
         0         0         0         0         0         0         0         0
         0         0         0         0         0         0         0         0
         0         0         0         0         0         0         0         0
         0         0         0         0         0         0         0         0
         0         0         0         0         0         0         0         0
         0         0         0         0         0         0         0         0
         0         0         0         0         0         0         0         0
         0         0         0         0         0         0         0         0
         0         0         0         0         0         0         0         0
         0         0         0         0         0         0         0         0
         0         0         0         0         0         0         0         0
         0         0         0         0         0         0         0         0
         0         0         0         0         0         0         0         0
         0         0         0         0         0         0         0         0
         0         0         0         0         0         0         0         0
         0         0         0         0         0         0         0         0
         0         0         0         0         0         0         0         0
         0         0         0         0         0         0         0         0
         0         0         0         0         0         0         0         0
         0         0         0         0         0         0         0         0
         0         0         0         0         0         0         0         0
         0         0         0         0         0         0         0         0
         0         0         0         0         0         0         0         0
         0         0         0         0         0         0         0         0
         0         0         0         0         0         0         0         0
         0         0         0         0         0         0         0         0
         0         0         0         0         0         0         0         0
         0         0         0         0         0         0         0         0
         0         0         0         0         0         0         0         0
         0         0         0         0         0         0         0         0
         0         0         0         0         0         0         0         0
         0         0         0         0         0         0         0         0
         0         0         0         0         0         0         0         0
         0         0         0         0         0         0         0         0
         0         0         0         0         0         0         0         0
         0         0         0         0         0         0         0         0
         0         0         0         0         0         0         0         0
         0         0         0         0         0         0         0         0
         0         0         0         0         0         0         0         0
         0         0         0         0         0         0         0         0
         0         0         0         0         0         0         0         0
         0         0         0         0         0         0         0         0
         0         0         0         0         0         0         0         0
         0         0         0         0         0         0         0         0
         0         0         0         0         0         0         0         0
         0         0         0         0         0         0         0         0
         0         0         0         0         0         0         0         0
         0         0         0         0         0         0         0         0
         0         0         0         0         0         0         0         0
         0         0         0         0         0         0         0         0
         0         0         0         0         0         0         0         0
         0         0         0         0         0         0         0         0
         0         0         0         0         0         0         0         0
         0         0         0         0         0         0         0         0
         0         0         0         0         0         0         0         0
         0         0         0         0         0         0         0         0
         0         0         0         0         0         0         0         0
         0         0         0         0         0         0         0         0
         0         0         0         0         0         0         0         0
         0         0         0         0         0         0         0         0
         0         0         0         0         0         0         0         0
         0         0         0         0         0         0         0         0
         0         0         0         0         0         0         0         0
         0         0         0         0         0         0         0         0
         0         0         0         0         0         0         0         0
         0         0         0         0         0         0         0         0
         0         0         0         0         0         0         0         0
         0         0         0         0         0         0         0         0
         0         0         0         0         0         0         0         0
         0         0         0         0         0         0         0         0
         0         0         0         0         0         0         0         0
         0         0         0         0         0         0         0         0
         0         0         0         0         0         0         0         0
         0         0         0         0         0         0         0         0
         0         0         0         0         0         0         0         0
         0         0         0         0         0         0         0         0
         0         0         0         0         0         0         0         0
         0         0         0         0         0         0         0         0
         0         0         0         0         0         0         0         0
         0         0         0         0         0         0         0         0
         0         0         0         0         0         0         0         0
         0         0         0         0         0         0         0         0
         0         0         0         0         0         0         0         0
         0         0         0         0         0         0         0         0
         0         0         0         0         0         0         0         0
         0         0         0         0         0         0         0         0
         0         0         0         0         0         0         0         0
         0         0         0         0         0         0         0         0
         0         0         0         0         0         0         0         0
         0         0         0         0         0         0         0         0
         0         0         0         0         0         0         0         0
         0         0         0         0         0         0         0         0
         0         0         0         0         0         0         0         0
         0         0         0         0         0         0         0         0
         0         0         0         0         0         0         0         0
         0         0         0         0         0         0         0         0
         0         0         0         0         0         0         0         0
         0         0         0         0         0         0         0         0
         0         0         0         0         0         0         0         0
         0         0         0         0         0         0         0         0
         0         0         0         0         0         0         0         0
         0         0         0         0         0         0         0         0
         0         0         0         0         0         0         0         0
         0         0         0         0         0         0         0         0
         0         0         0         0         0         0         0         0
         0         0         0         0         0         0         0         0
         0         0         0         0         0         0         0         0
         0         0         0         0         0         0         0         0
         0         0         0         0         0         0         0         0
         0         0         0         0         0         0         0         0
         0         0         0         0         0         0         0         0
         0         0         0         0         0         0         0         0
         0         0         0         0         0         0         0         0
         0         0         0         0         0         0         0         0
         0         0         0         0         0         0         0         0
         0         0         0         0         0         0         0         0
         0         0         0         0         0         0         0         0
         0         0         0         0         0         0         0         0
         0         0         0         0         0         0         0         0
         0         0         0         0         0         0         0         0
         0         0         0         0         0         0         0         0
         0         0         0         0         0         0         0         0
         0         0         0         0         0         0         0         0
         0         0         0         0         0         0         0         0
         0         0         0         0         0         0         0         0
         0         0         0         0         0         0         0         0
         0         0         0         0         0         0         0         0
         0         0         0         0         0         0         0         0
         0         0         0         0         0         0         0         0
         0         0         0         0         0         0         0         0
         0         0         0         0         0         0         0         0
         0         0         0         0         0         0         0         0
         0         0         0         0         0         0         0         0
         0         0         0         0         0         0         0         0
         0         0         0         0         0         0         0         0
         0         0         0         0         0         0         0         0
         0         0         0         0         0         0         0         0
         0         0         0         0         0         0         0         0
         0         0         0         0         0         0         0         0
         0         0         0         0         0         0         0         0
         0         0         0         0         0         0         0         0
         0         0         0         0         0         0         0         0
         0         0         0         0         0         0         0         0
         0         0         0         0         0         0         0         0
         0         0         0         0         0         0         0         0
         0         0         0         0         0         0         0         0
         0         0         0         0         0         0         0         0
         0         0         0         0         0         0         0         0
         0         0         0         0         0         0         0         0
         0         0         0         0         0         0         0         0
         0         0         0         0         0         0         0         0
         0         0         0         0         0         0         0         0
         0         0         0         0         0         0         0         0
         0         0         0         0         0         0         0         0
         0         0         0         0         0         0         0         0
         0         0         0         0         0         0         0         0
         0         0         0         0         0         0         0         0
         0         0         0         0         0         0         0         0
         0         0         0         0         0         0         0         0
         0         0         0         0         0         0         0         0
         0         0         0         0         0         0         0         0
         0         0         0         0         0         0         0         0
         0         0         0         0         0         0         0         0
         0         0         0         0         0         0         0         0
         0         0         0         0         0         0         0         0
         0         0         0         0         0         0         0         0
         0         0         0         0         0         0         0         0
         0         0         0         0         0         0         0         0
         0         0         0         0         0         0         0         0
         0         0         0         0         0         0         0         0
         0         0         0         0         0         0         0         0
         0         0         0         0         0         0         0         0
         0         0         0         0         0         0         0         0
         0         0         0         0         0         0         0         0
         0         0         0         0         0         0         0         0
         0         0         0         0         0         0         0         0
         0         0         0         0         0         0         0         0
         0         0         0         0         0         0         0         0
         0         0         0         0         0         0         0         0
         0         0         0         0         0         0         0         0
         0         0         0         0         0         0         0         0
         0         0         0         0         0         0         0         0
         0         0         0         0         0         0         0         0
         0         0         0         0         0         0         0         0
         0         0         0         0         0         0         0         0
         0         0         0         0         0         0         0         0
         0         0         0         0         0         0         0         0
         0         0         0         0         0         0         0         0
         0         0         0         0         0         0         0         0
         0         0         0         0         0         0         0         0
         0         0         0         0         0         0         0         0
         0         0         0         0         0         0         0         0
         0         0         0         0         0         0         0         0
         0         0         0         0         0         0         0         0
         0         0         0         0         0         0         0         0
         0         0         0         0         0         0         0         0
         0         0         0         0         0         0         0         0
         0         0         0         0         0         0         0         0
         0         0         0         0         0         0         0         0
         0         0         0         0         0         0         0         0
         0         0         0         0         0         0         0         0
         0         0         0         0         0         0         0         0
         0         0         0         0         0         0         0         0
         0         0         0         0         0         0         0         0
         0         0         0         0         0         0         0         0
         0         0         0         0         0         0         0         0
         0         0         0         0         0         0         0         0
         0         0         0         0         0         0         0         0
         0         0         0         0         0         0         0         0
         0         0         0         0         0         0         0         0
         0         0         0         0         0         0         0         0
         0         0         0         0         0         0         0         0
         0         0         0         0         0         0         0         0
         0         0         0         0         0         0         0         0
         0         0         0         0         0         0         0         0
         0         0         0         0         0         0         0         0
         0         0         0         0         0         0         0         0
         0         0         0         0         0         0         0         0
         0         0         0         0         0         0         0         0
         0         0         0         0         0         0         0         0
         0         0         0         0         0         0         0         0
         0         0         0         0         0         0         0         0
         0         0         0         0         0         0         0         0
         0         0         0         0         0         0         0         0
         0         0         0         0         0         0         0         0
         0         0         0         0         0         0         0         0
         0         0         0         0         0         0         0         0
         0         0         0         0         0         0         0         0
         0         0         0         0         0         0         0         0
         0         0         0         0         0         0         0         0
         0         0         0         0         0         0         0         0
         0         0         0         0         0         0         0         0
         0         0         0         0         0         0         0         0
         0         0         0         0         0         0         0         0
         0         0         0         0         0         0         0         0
         0         0         0         0         0         0         0         0
         0         0         0         0         0         0         0         0
         0         0         0         0         0         0         0         0
         0         0         0         0         0         0         0         0
         0         0         0         0         0         0         0         0
         0         0         0         0         0         0         0         0
         0         0         0         0         0         0         0         0
         0         0         0         0         0         0         0         0
         0         0         0         0         0         0         0         0
         0         0         0         0         0         0         0         0
         0         0         0         0         0         0         0         0
         0         0         0         0         0         0         0         0
         0         0         0         0         0         0         0         0
         0         0         0         0         0         0         0         0
         0         0         0         0         0         0         0         0
         0         0         0         0         0         0         0         0
         0         0         0         0         0         0         0         0
         0         0         0         0         0         0         0         0
         0         0         0         0         0         0         0         0
         0         0         0         0         0         0         0         0
         0         0         0         0         0         0         0         0
         0         0         0         0         0         0         0         0
         0         0         0         0         0         0         0         0
         0         0         0         0         0         0         0         0
         0         0         0         0         0         0         0         0
         0         0         0         0         0         0         0         0
         0         0         0         0         0         0         0         0
         0         0         0         0         0         0         0         0
         0         0         0         0         0         0         0         0
         0         0         0         0         0         0         0         0
         0         0         0         0         0         0         0         0
         0         0         0         0         0         0         0         0
         0         0         0         0         0         0         0         0
         0         0         0         0         0         0         0         0
         0         0         0         0         0         0         0         0
         0         0         0         0         0         0         0         0
         0         0         0         0         0         0         0         0
         0         0         0         0         0         0         0         0
         0         0         0         0         0         0         0         0
         0         0         0         0         0         0         0         0
         0         0         0         0         0         0         0         0
         0         0         0         0         0         0         0         0
         0         0         0         0         0         0         0         0
         0         0         0         0         0         0         0         0
         0         0         0         0         0         0         0         0
         0         0         0         0         0         0         0         0
         0         0         0         0         0         0         0         0
         0         0         0         0         0         0         0         0
         0         0         0         0         0         0         0         0
         0         0         0         0         0         0         0         0
         0         0         0         0         0         0         0         0
         0         0         0         0         0         0         0         0
         0         0         0         0         0         0         0         0
         0         0         0         0         0         0         0         0
         0         0         0         0         0         0         0         0
         0         0         0         0         0         0         0         0
         0         0         0         0         0         0         0         0
         0         0         0         0         0         0         0         0
         0         0         0         0         0         0         0         0
         0         0         0         0         0         0         0         0
         0         0         0         0         0         0         0         0
         0         0         0         0         0         0         0         0
         0         0         0         0         0         0         0         0
         0         0         0         0         0         0         0         0
         0         0         0         0         0         0         0         0
         0         0         0         0         0         0         0         0
         0         0         0         0         0         0         0         0
         0         0         0         0         0         0         0         0
         0         0         0         0         0         0         0         0
         0         0         0         0         0         0         0         0
         0         0         0         0         0         0         0         0
         0         0         0         0         0         0         0         0
         0         0         0         0         0         0         0         0
         0         0         0         0         0         0         0         0
         0         0         0         0         0         0         0         0
         0         0         0         0         0         0         0         0
         0         0         0         0         0         0         0         0
         0         0         0         0         0         0         0         0
         0         0         0         0         0         0         0         0
         0         0         0         0         0         0         0         0
         0         0         0         0         0         0         0         0
         0         0         0         0         0         0         0         0
         0         0         0         0         0         0         0         0
         0         0         0         0         0         0         0         0
         0         0         0         0         0         0         0         0
         0         0         0         0         0         0         0         0
         0         0         0         0         0         0         0         0
         0         0         0         0         0         0         0         0
         0         0         0         0         0         0         0         0
         0         0         0         0         0         0         0         0
         0         0         0         0         0         0         0         0
         0         0         0         0         0         0         0         0
         0         0         0         0         0         0         0         0
         0         0         0         0         0         0         0         0
         0         0         0         0         0         0         0         0
         0         0         0         0         0         0         0         0
         0         0         0         0         0         0         0         0
         0         0         0         0         0         0         0         0
         0         0         0         0         0         0         0         0
         0         0         0         0         0         0         0         0
         0         0         0         0         0         0         0         0
         0         0         0         0         0         0         0         0
         0         0         0         0         0         0         0         0
         0         0         0         0         0         0         0         0
         0         0         0         0         0         0         0         0
         0         0         0         0         0         0         0         0
         0         0         0         0         0         0         0         0
         0         0         0         0         0         0         0         0
         0         0         0         0         0         0         0         0
         0         0         0         0         0         0         0         0
         0         0         0         0         0         0         0         0
         0         0         0         0         0         0         0         0
         0         0         0         0         0         0         0         0
         0         0         0         0         0         0         0         0
         0         0         0         0         0         0         0         0
         0         0         0         0         0         0         0         0
         0         0         0         0         0         0         0         0
         0         0         0         0         0         0         0         0
         0         0         0         0         0         0         0         0
         0         0         0         0         0         0         0         0
         0         0         0         0         0         0         0         0
         0         0         0         0         0         0         0         0
         0         0         0         0         0         0         0         0
         0         0         0         0         0         0         0         0
         0         0         0         0         0         0         0         0
         0         0         0         0         0         0         0         0
         0         0         0         0         0         0         0         0
         0         0         0         0         0         0         0         0
         0         0         0         0         0         0         0         0
         0         0         0         0         0         0         0         0
         0         0         0         0         0         0         0         0
         0         0         0         0         0         0         0         0
         0         0         0         0         0         0         0         0
         0         0         0         0         0         0         0         0
         0         0         0         0         0         0         0         0
         0         0         0         0         0         0         0         0
         0         0         0         0         0         0         0         0
         0         0         0         0         0         0         0         0
         0         0         0         0         0         0         0         0
         0         0         0         0         0         0         0         0
         0         0         0         0         0         0         0         0
         0         0         0         0         0         0         0         0
         0         0         0         0         0         0         0         0
         0         0         0         0         0         0         0         0
         0         0         0         0         0         0         0         0
         0         0         0         0         0         0         0         0
         0         0         0         0         0         0         0         0
         0         0         0         0         0         0         0         0
         0         0         0         0         0         0         0         0
         0         0         0         0         0         0         0         0
         0         0         0         0         0         0         0         0
         0         0         0         0         0         0         0         0
         0         0         0         0         0         0         0         0
         0         0         0         0         0         0         0         0
         0         0         0         0         0         0         0         0
         0         0         0         0         0         0         0         0
         0         0         0         0         0         0         0         0
         0         0         0         0         0         0         0         0
         0         0         0         0         0         0         0         0
         0         0         0         0         0         0         0         0
         0         0         0         0         0         0         0         0
         0         0         0         0         0         0         0         0
         0         0         0         0         0         0         0         0
         0         0         0         0         0         0         0         0
         0         0         0         0         0         0         0         0
         0         0         0         0         0         0         0         0
         0         0         0         0         0         0         0         0
         0         0         0         0         0         0         0         0
         0         0         0         0         0         0         0         0
         0         0         0         0         0         0         0         0
         0         0         0         0         0         0         0         0
         0         0         0         0         0         0         0         0
         0         0         0         0         0         0         0         0
         0         0         0         0         0         0         0         0
         0         0         0         0         0         0         0         0
         0         0         0         0         0         0         0         0
         0         0         0         0         0         0         0         0
         0         0         0         0         0         0         0         0
         0         0         0         0         0         0         0         0
         0         0         0         0         0         0         0         0
         0         0         0         0         0         0         0         0
         0         0         0         0         0         0         0         0
         0         0         0         0         0         0         0         0
         0         0         0         0         0         0         0         0
         0         0         0         0         0         0         0         0
         0         0         0         0         0         0         0         0
         0         0         0         0         0         0         0         0
         0         0         0         0         0         0         0         0
         0         0         0         0         0         0         0         0
         0         0         0         0         0         0         0         0
         0         0         0         0         0         0         0         0
         0         0         0         0         0         0         0         0
         0         0         0         0         0         0         0         0
         0         0         0         0         0         0         0         0
         0         0         0         0         0         0         0         0
         0         0         0         0         0         0         0         0
         0         0         0         0         0         0         0         0
         0         0         0         0         0         0         0         0
         0         0         0         0         0         0         0         0
         0         0         0         0         0         0         0         0
         0         0         0         0         0         0         0         0
         0         0         0         0         0         0         0         0
         0         0         0         0         0         0         0         0
         0         0         0         0         0         0         0         0
         0         0         0         0         0         0         0         0
         0         0         0         0         0         0         0         0
         0         0         0         0         0         0         0         0
         0         0         0         0         0         0         0         0
         0         0         0         0         0         0         0         0
         0         0         0         0         0         0         0         0
         0         0         0         0         0         0         0         0
         0         0         0         0         0         0         0         0
         0         0         0         0         0         0         0         0
         0         0         0         0         0         0         0         0
         0         0         0         0         0         0         0         0
         0         0         0         0         0         0         0         0
         0         0         0         0         0         0         0         0
         0         0         0         0         0         0         0         0
         0         0         0         0         0         0         0         0
         0         0         0         0         0         0         0         0
         0         0         0         0         0         0         0         0
         0         0         0         0         0         0         0         0
         0         0         0         0         0         0         0         0
         0         0         0         0         0         0         0         0
         0         0         0         0         0         0         0         0
         0         0         0         0         0         0         0         0
         0         0         0         0         0         0         0         0
         0         0         0         0         0         0         0         0
         0         0         0         0         0         0         0         0
         0         0         0         0         0         0         0         0
         0         0         0         0         0         0         0         0
         0         0         0         0         0         0         0         0
         0         0         0         0         0         0         0         0
         0         0         0         0         0         0         0         0
         0         0         0         0         0         0         0         0
         0         0         0         0         0         0         0         0
         0         0         0         0         0         0         0         0
         0         0         0         0         0         0         0         0
         0         0         0         0         0         0         0         0
         0         0         0         0         0         0         0         0
         0         0         0         0         0         0         0         0
         0         0         0         0         0         0         0         0
         0         0         0         0         0         0         0         0
         0         0         0         0         0         0         0         0
         0         0         0         0         0         0         0         0
         0         0         0         0         0         0         0         0
         0         0         0         0         0         0         0         0
         0         0         0         0         0         0         0         0
         0         0         0         0         0         0         0         0
         0         0         0         0         0         0         0         0
         0         0         0         0         0         0         0         0
         0         0         0         0         0         0         0         0
         0         0         0         0         0         0         0         0
         0         0         0         0         0         0         0         0
         0         0         0         0         0         0         0         0
         0         0         0         0         0         0         0         0
         0         0         0         0         0         0         0         0
         0         0         0         0         0         0         0         0
         0         0         0         0         0         0         0         0
         0         0         0         0         0         0         0         0
         0         0         0         0         0         0         0         0
         0         0         0         0         0         0         0         0
         0         0         0         0         0         0         0         0
         0         0         0         0         0         0         0         0
         0         0         0         0         0         0         0         0
         0         0         0         0         0         0         0         0
         0         0         0         0         0         0         0         0
         0         0         0         0         0         0         0         0
         0         0         0         0         0         0         0         0
         0         0         0         0         0         0         0         0
         0         0         0         0         0         0         0         0
         0         0         0         0         0         0         0         0
         0         0         0         0         0         0         0         0
         0         0         0         0         0         0         0         0
         0         0         0         0         0         0         0         0
         0         0         0         0         0         0         0         0
         0         0         0         0         0         0         0         0
         0         0         0         0         0         0         0         0
         0         0         0         0         0         0         0         0
         0         0         0         0         0         0         0         0
         0         0         0         0         0         0         0         0
         0         0         0         0         0         0         0         0
         0         0         0         0         0         0         0         0
         0         0         0         0         0         0         0         0
         0         0         0         0         0         0         0         0
         0         0         0         0         0         0         0         0
         0         0         0         0         0         0         0         0
         0         0         0         0         0         0         0         0
         0         0         0         0         0         0         0         0
         0         0         0         0         0         0         0         0
         0         0         0         0         0         0         0         0
         0         0         0         0         0         0         0         0
         0         0         0         0         0         0         0         0
         0         0         0         0         0         0         0         0
         0         0         0         0         0         0         0         0
         0         0         0         0         0         0         0         0
         0         0         0         0         0         0         0         0
         0         0         0         0         0         0         0         0
         0         0         0         0         0         0         0         0
         0         0         0         0         0         0         0         0
         0         0         0         0         0         0         0         0
         0         0         0         0         0         0         0         0
         0         0         0         0         0         0         0         0
         0         0         0         0         0         0         0         0
         0         0         0         0         0         0         0         0
         0         0         0         0         0         0         0         0
         0         0         0         0         0         0         0         0
         0         0         0         0         0         0         0         0
         0         0         0         0         0         0         0         0
         0         0         0         0         0         0         0         0
         0         0         0         0         0         0         0         0
         0         0         0         0         0         0         0         0
         0         0         0         0         0         0         0         0
         0         0         0         0         0         0         0         0
         0         0         0         0         0         0         0         0
         0         0         0         0         0         0         0         0
         0         0         0         0         0         0         0         0
         0         0         0         0         0         0         0         0
         0         0         0         0         0         0         0         0
         0         0         0         0         0         0         0         0
         0         0         0         0         0         0         0         0
         0         0         0         0         0         0         0         0
         0         0         0         0         0         0         0         0
         0         0         0         0         0         0         0         0
         0         0         0         0         0         0         0         0
         0         0         0         0         0         0         0         0
         0         0         0         0         0         0         0         0
         0         0         0         0         0         0         0         0
         0         0         0         0         0         0         0         0
         0         0         0         0         0         0         0         0
         0         0         0         0         0         0         0         0
         0         0         0         0         0         0         0         0
         0         0         0         0         0         0         0         0
         0         0         0         0         0         0         0         0
         0         0         0         0         0         0         0         0
         0         0         0         0         0         0         0         0
         0         0         0         0         0         0         0         0
         0         0         0         0         0         0         0         0
         0         0         0         0         0         0         0         0
         0         0         0         0         0         0         0         0
         0         0         0         0         0         0         0         0
         0         0         0         0         0         0         0         0
         0         0         0         0         0         0         0         0
         0         0         0         0         0         0         0         0
         0         0         0         0         0         0         0         0
         0         0         0         0         0         0         0         0
         0         0         0         0         0         0         0         0
         0         0         0         0         0         0         0         0
         0         0         0         0         0         0         0         0
         0         0         0         0         0         0         0         0
         0         0         0         0         0         0         0         0
         0         0         0         0         0         0         0         0
         0         0         0         0         0         0         0         0
         0         0         0         0         0         0         0         0
         0         0         0         0         0         0         0         0
         0         0         0         0         0         0         0         0
         0         0         0         0         0         0         0         0
         0         0         0         0         0         0         0         0
         0         0         0         0         0         0         0         0
         0         0         0         0         0         0         0         0
         0         0         0         0         0         0         0         0
         0         0         0         0         0         0         0         0
         0         0         0         0         0         0         0         0
         0         0         0         0         0         0         0         0
         0         0         0         0         0         0         0         0
         0         0         0         0         0         0         0         0
         0         0         0         0         0         0         0         0
         0         0         0         0         0         0         0         0
         0         0         0         0         0         0         0         0
         0         0         0         0         0         0         0         0
         0         0         0         0         0         0         0         0
         0         0         0         0         0         0         0         0
         0         0         0         0         0         0         0         0
         0         0         0         0         0         0         0         0
         0         0         0         0         0         0         0         0
         0         0         0         0         0         0         0         0
         0         0         0         0         0         0         0         0
         0         0         0         0         0         0         0         0
         0         0         0         0         0         0         0         0
         0         0         0         0         0         0         0         0
         0         0         0         0         0         0         0         0
         0         0         0         0         0         0         0         0
         0         0         0         0         0         0         0         0
         0         0         0         0         0         0         0         0
         0         0         0         0         0         0         0         0
         0         0         0         0         0         0         0         0
         0         0         0         0         0         0         0         0
         0         0         0         0         0         0         0         0
         0         0         0         0         0         0         0         0
         0         0         0         0         0         0         0         0
         0         0         0         0         0         0         0         0
         0         0         0         0         0         0         0         0
         0         0         0         0         0         0         0         0
         0         0         0         0         0         0         0         0
         0         0         0         0         0         0         0         0
         0         0         0         0         0         0         0         0
         0         0         0         0         0         0         0         0
         0         0         0         0         0         0         0         0
         0         0         0         0         0         0         0         0
         0         0         0         0         0         0         0         0
         0         0         0         0         0         0         0         0
         0         0         0         0         0         0         0         0
         0         0         0         0         0         0         0         0
         0         0         0         0         0         0         0         0
         0         0         0         0         0         0         0         0
         0         0         0         0         0         0         0         0
         0         0         0         0         0         0         0         0
         0         0         0         0         0         0         0         0
         0         0         0         0         0         0         0         0
         0         0         0         0         0         0         0         0
         0         0         0         0         0         0         0         0
         0         0         0         0         0         0         0         0
         0         0         0         0         0         0         0         0
         0         0         0         0         0         0         0         0
         0         0         0         0         0         0         0         0
         0         0         0         0         0         0         0         0
         0         0         0         0         0         0         0         0
         0         0         0         0         0         0         0         0
         0         0         0         0         0         0         0         0
         0         0         0         0         0         0         0         0
         0         0         0         0         0         0         0         0
         0         0         0         0         0         0         0         0
         0         0         0         0         0         0         0         0
         0         0         0         0         0         0         0         0
         0         0         0         0         0         0         0         0
         0         0         0         0         0         0         0         0
         0         0         0         0         0         0         0         0
         0         0         0         0         0         0         0         0
         0         0         0         0         0         0         0         0
         0         0         0         0         0         0         0         0
         0         0         0         0         0         0         0         0
         0         0         0         0         0         0         0         0
         0         0         0         0         0         0         0         0
         0         0         0         0         0         0         0         0
         0         0         0         0         0         0         0         0
         0         0         0         0         0         0         0         0
         0         0         0         0         0         0         0         0
         0         0         0         0         0         0         0         0
         0         0         0         0         0         0         0         0
         0         0         0         0         0         0         0         0
         0         0         0         0         0         0         0         0
         0         0         0         0         0         0         0         0
         0         0         0         0         0         0         0         0
         0         0         0         0         0         0         0         0
         0         0         0         0         0         0         0         0
         0         0         0         0         0         0         0         0
         0         0         0         0         0         0         0         0
         0         0         0         0         0         0         0         0
         0         0         0         0         0         0         0         0
         0         0         0         0         0         0         0         0
         0         0         0         0         0         0         0         0
         0         0         0         0         0         0         0         0
         0         0         0         0         0         0         0         0
         0         0         0         0         0         0         0         0
         0         0         0         0         0         0         0         0
         0         0         0         0         0         0         0         0
         0         0         0         0         0         0         0         0
         0         0         0         0         0         0         0         0
         0         0         0         0         0         0         0         0
         0         0         0         0         0         0         0         0
         0         0         0         0         0         0         0         0
         0         0         0         0         0         0         0         0
         0         0         0         0         0         0         0         0
         0         0         0         0         0         0         0         0
         0         0         0         0         0         0         0         0
         0         0         0         0         0         0         0         0
         0         0         0         0         0         0         0         0
         0         0         0         0         0         0         0         0
         0         0         0         0         0         0         0         0
         0         0         0         0         0         0         0         0
         0         0         0         0         0         0         0         0
         0         0         0         0         0         0         0         0
         0         0         0         0         0         0         0         0
         0         0         0         0         0         0         0         0
         0         0         0         0         0         0         0         0
         0         0         0         0         0         0         0         0
         0         0         0         0         0         0         0         0
         0         0         0         0         0         0         0         0
         0         0         0         0         0         0         0         0
         0         0         0         0         0         0         0         0
         0         0         0         0         0         0         0         0
         0         0         0         0         0         0         0         0
         0         0         0         0         0         0         0         0
         0         0         0         0         0         0         0         0
         0         0         0         0         0         0         0         0
         0         0         0         0         0         0         0         0
         0         0         0         0         0         0         0         0
         0         0         0         0         0         0         0         0
         0         0         0         0         0         0         0         0
         0         0         0         0         0         0         0         0
         0         0         0         0         0         0         0         0
         0         0         0         0         0         0         0         0
         0         0         0         0         0         0         0         0
         0         0         0         0         0         0         0         0
         0         0         0         0         0         0         0         0
         0         0         0         0         0         0         0         0
         0         0         0         0         0         0         0         0
         0         0         0         0         0         0         0         0
         0         0         0         0         0         0         0         0
         0         0         0         0         0         0         0         0
         0         0         0         0         0         0         0         0
         0         0         0         0         0         0         0         0
         0         0         0         0         0         0         0         0
         0         0         0         0         0         0         0         0
         0         0         0         0         0         0         0         0
         0         0         0         0         0         0         0         0
         0         0         0         0         0         0         0         0
         0         0         0         0         0         0         0         0
         0         0         0         0         0         0         0         0
         0         0         0         0         0         0         0         0
         0         0         0         0         0         0         0         0
         0         0         0         0         0         0         0         0
         0         0         0         0         0         0         0         0
         0         0         0         0         0         0         0         0
         0         0         0         0         0         0         0         0
         0         0         0         0         0         0         0         0
         0         0         0         0         0         0         0         0
         0         0         0         0         0         0         0         0
         0         0         0         0         0         0         0         0
         0         0         0         0         0         0         0         0
         0         0         0         0         0         0         0         0
         0         0         0         0         0         0         0         0
         0         0         0         0         0         0         0         0
         0         0         0         0         0         0         0         0
         0         0         0         0         0         0         0         0
         0         0         0         0         0         0         0         0
         0         0         0         0         0         0         0         0
         0         0         0         0         0         0         0         0
         0         0         0         0         0         0         0         0
         0         0         0         0         0         0         0         0
         0         0         0         0         0         0         0         0
         0         0         0         0         0         0         0         0
         0         0         0         0         0         0         0         0
         0         0         0         0         0         0         0         0
         0         0         0         0         0         0         0         0
         0         0         0         0         0         0         0         0
         0         0         0         0         0         0         0         0
         0         0         0         0         0         0         0         0
         0         0         0         0         0         0         0         0
         0         0         0         0         0         0         0         0
         0         0         0         0         0         0         0         0
         0         0         0         0         0         0         0         0
         0         0         0         0         0         0         0         0
         0         0         0         0         0         0         0         0
         0         0         0         0         0         0         0         0
         0         0         0         0         0         0         0         0
         0         0         0         0         0         0         0         0
         0         0         0         0         0         0         0         0
         0         0         0         0         0         0         0         0
         0         0         0         0         0         0         0         0
         0         0         0         0         0         0         0         0
         0         0         0         0         0         0         0         0
         0         0         0         0         0         0         0         0
         0         0         0         0         0         0         0         0
         0         0         0         0         0         0         0         0
         0         0         0         0         0         0         0         0
         0         0         0         0         0         0         0         0
         0         0         0         0         0         0         0         0
         0         0         0         0         0         0         0         0
         0         0         0         0         0         0         0         0
         0         0         0         0         0         0         0         0
         0         0         0         0         0         0         0         0
         0         0         0         0         0         0         0         0
         0         0         0         0         0         0         0         0
         0         0         0         0         0         0         0         0
         0         0         0         0         0         0         0         0
         0         0         0         0         0         0         0         0
         0         0         0         0         0         0         0         0
         0         0         0         0         0         0         0         0
         0         0         0         0         0         0         0         0
         0         0         0         0         0         0         0         0
         0         0         0         0         0         0         0         0
         0         0         0         0         0         0         0         0
         0         0         0         0         0         0         0         0
         0         0         0         0         0         0         0         0
         0         0         0         0         0         0         0         0
         0         0         0         0         0         0         0         0
         0         0         0         0         0         0         0         0
         0         0         0         0         0         0         0         0
         0         0         0         0         0         0         0         0
         0         0         0         0         0         0         0         0
         0         0         0         0         0         0         0         0
         0         0         0         0         0         0         0         0
         0         0         0         0         0         0         0         0
         0         0         0         0         0         0         0         0
         0         0         0         0         0         0         0         0
         0         0         0         0         0         0         0         0
         0         0         0         0         0         0         0         0
         0         0         0         0         0         0         0         0
         0         0         0         0         0         0         0         0
         0         0         0         0         0         0         0         0
         0         0         0         0         0         0         0         0
         0         0         0         0         0         0         0         0
         0         0         0         0         0         0         0         0
         0         0         0         0         0         0         0         0
         0         0         0         0         0         0         0         0
         0         0         0         0         0         0         0         0
         0         0         0         0         0         0         0         0
         0         0         0         0         0         0         0         0
         0         0         0         0         0         0         0         0
         0         0         0         0         0         0         0         0
         0         0         0         0         0         0         0         0
         0         0         0         0         0         0         0         0
         0         0         0         0         0         0         0         0
         0         0         0         0         0         0         0         0
         0         0         0         0         0         0         0         0
         0         0         0         0         0         0         0         0
         0         0         0         0         0         0         0         0
         0         0         0         0         0         0         0         0
         0         0         0         0         0         0         0         0
         0         0         0         0         0         0         0         0
         0         0         0         0         0         0         0         0
         0         0         0         0         0         0         0         0
         0         0         0         0         0         0         0         0
         0         0         0         0         0         0         0         0
         0         0         0         0         0         0         0         0
         0         0         0         0         0         0         0         0
         0         0         0         0         0         0         0         0
         0         0         0         0         0         0         0         0
         0         0         0         0         0         0         0         0
         0         0         0         0         0         0         0         0
         0         0         0         0         0         0         0         0
         0         0         0         0         0         0         0         0
         0         0         0         0         0         0         0         0
         0         0         0         0         0         0         0         0
         0         0         0         0         0         0         0         0
         0         0         0         0         0         0         0         0
         0         0         0         0         0         0         0         0
         0         0         0         0         0         0         0         0
         0         0         0         0         0         0         0         0
         0         0         0         0         0         0         0         0
         0         0         0         0         0         0         0         0
         0         0         0         0         0         0         0         0
         0         0         0         0         0         0         0         0
         0         0         0         0         0         0         0         0
         0         0         0         0         0         0         0         0
         0         0         0         0         0         0         0         0
         0         0         0         0         0         0         0         0
         0         0         0         0         0         0         0         0
         0         0         0         0         0         0         0         0
         0         0         0         0         0         0         0         0
         0         0         0         0         0         0         0         0
         0         0         0         0         0         0         0         0
         0         0         0         0         0         0         0         0
         0         0         0         0         0         0         0         0
         0         0         0         0         0         0         0         0
         0         0         0         0         0         0         0         0
         0         0         0         0         0         0         0         0
         0         0         0         0         0         0         0         0
         0         0         0         0         0         0         0         0
         0         0         0         0         0         0         0         0
         0         0         0         0         0         0         0         0
         0         0         0         0         0         0         0         0
         0         0         0         0         0         0         0         0
         0         0         0         0         0         0         0         0
         0         0         0         0         0         0         0         0
         0         0         0         0         0         0         0         0
         0         0         0         0         0         0         0         0
         0         0         0         0         0         0         0         0
         0         0         0         0         0         0         0         0
         0         0         0         0         0         0         0         0
         0         0         0         0         0         0         0         0
         0         0         0         0         0         0         0         0
         0         0         0         0         0         0         0         0
         0         0         0         0         0         0         0         0
         0         0         0         0         0         0         0         0
         0         0         0         0         0         0         0         0
         0         0         0         0         0         0         0         0
         0         0         0         0         0         0         0         0
         0         0         0         0         0         0         0         0
         0         0         0         0         0         0         0         0
         0         0         0         0         0         0         0         0
         0         0         0         0         0         0         0         0
         0         0         0         0         0         0         0         0
         0         0         0         0         0         0         0         0
         0         0         0         0         0         0         0         0
         0         0         0         0         0         0         0         0
         0         0         0         0         0         0         0         0
         0         0         0         0         0         0         0         0
         0         0         0         0         0         0         0         0
         0         0         0         0         0         0         0         0
         0         0         0         0         0         0         0         0
         0         0         0         0         0         0         0         0
         0         0         0         0         0         0         0         0
         0         0         0         0         0         0         0         0
         0         0         0         0         0         0         0         0
         0         0         0         0         0         0         0         0
         0         0         0         0         0         0         0         0
         0         0         0         0         0         0         0         0
         0         0         0         0         0         0         0         0
         0         0         0         0         0         0         0         0
         0         0         0         0         0         0         0         0
         0         0         0         0         0         0         0         0
         0         0         0         0         0         0         0         0
         0         0         0         0         0         0         0         0
         0         0         0         0         0         0         0         0
         0         0         0         0         0         0         0         0
         0         0         0         0         0         0         0         0
         0         0         0         0         0         0         0         0
         0         0         0         0         0         0         0         0
         0         0         0         0         0         0         0         0
         0         0         0         0         0         0         0         0
         0         0         0         0         0         0         0         0
         0         0         0         0         0         0         0         0
         0         0         0         0         0         0         0         0
         0         0         0         0         0         0         0         0
         0         0         0         0         0         0         0         0
         0         0         0         0         0         0         0         0
         0         0         0         0         0         0         0         0
         0         0         0         0         0         0         0         0
         0         0         0         0         0         0         0         0
         0         0         0         0         0         0         0         0
         0         0         0         0         0         0         0         0
         0         0         0         0         0         0         0         0
         0         0         0         0         0         0         0         0
         0         0         0         0         0         0         0         0
         0         0         0         0         0         0         0         0
         0         0         0         0         0         0         0         0
         0         0         0         0         0         0         0         0
         0         0         0         0         0         0         0         0
         0         0         0         0         0         0         0         0
         0         0         0         0         0         0         0         0
         0         0         0         0         0         0         0         0
         0         0         0         0         0         0         0         0
         0         0         0         0         0         0         0         0
         0         0         0         0         0         0         0         0
         0         0         0         0         0         0         0         0
         0         0         0         0         0         0         0         0
         0         0         0         0         0         0         0         0
         0         0         0         0         0         0         0         0
         0         0         0         0         0         0         0         0
         0         0         0         0         0         0         0         0
         0         0         0         0         0         0         0         0
         0         0         0         0         0         0         0         0
         0         0         0         0         0         0         0         0
         0         0         0         0         0         0         0         0
         0         0         0         0         0         0         0         0
         0         0         0         0         0         0         0         0
         0         0         0         0         0         0         0         0
         0         0         0         0         0         0         0         0
         0         0         0         0         0         0         0         0
         0         0         0         0         0         0         0         0
         0         0         0         0         0         0         0         0
         0         0         0         0         0         0         0         0
         0         0         0         0         0         0         0         0
         0         0         0         0         0         0         0         0
         0         0         0         0         0         0         0         0
         0         0         0         0         0         0         0         0
         0         0         0         0         0         0         0         0
         0         0         0         0         0         0         0         0
         0         0         0         0         0         0         0         0
         0         0         0         0         0         0         0         0
         0         0         0         0         0         0         0         0
         0         0         0         0         0         0         0         0
         0         0         0         0         0         0         0         0
         0         0         0         0         0         0         0         0
         0         0         0         0         0         0         0         0
         0         0         0         0         0         0         0         0
         0         0         0         0         0         0         0         0
         0         0         0         0         0         0         0         0
         0         0         0         0         0         0         0         0
         0         0         0         0         0         0         0         0
         0         0         0         0         0         0         0         0
         0         0         0         0         0         0         0         0
         0         0         0         0         0         0         0         0
         0         0         0         0         0         0         0         0
         0         0         0         0         0         0         0         0
         0         0         0         0         0         0         0         0
         0         0         0         0         0         0         0         0
         0         0         0         0         0         0         0         0
         0         0         0         0         0         0         0         0
         0         0         0         0         0         0         0         0
         0         0         0         0         0         0         0         0
         0         0         0         0         0         0         0         0
         0         0         0         0         0         0         0         0
         0         0         0         0         0         0         0         0
         0         0         0         0         0         0         0         0
         0         0         0         0         0         0         0         0
         0         0         0         0         0         0         0         0
         0         0         0         0         0         0         0         0
         0         0         0         0         0         0         0         0
         0         0         0         0         0         0         0         0
         0         0         0         0         0         0         0         0
         0         0         0         0         0         0         0         0
         0         0         0         0         0         0         0         0
         0         0         0         0         0         0         0         0
         0         0         0         0         0         0         0         0
         0         0         0         0         0         0         0         0
         0         0         0         0         0         0         0         0
         0         0         0         0         0         0         0         0
         0         0         0         0         0         0         0         0
         0         0         0         0         0         0         0         0
         0         0         0         0         0         0         0         0
         0         0         0         0         0         0         0         0
         0         0         0         0         0         0         0         0
         0         0         0         0         0         0         0         0
         0         0         0         0         0         0         0         0
         0         0         0         0         0         0         0         0
         0         0         0         0         0         0         0         0
         0         0         0         0         0         0         0         0
         0         0         0         0         0         0         0         0
         0         0         0         0         0         0         0         0
         0         0         0         0         0         0         0         0
         0         0         0         0         0         0         0         0
         0         0         0         0         0         0         0         0
         0         0         0         0         0         0         0         0
         0         0         0         0         0         0         0         0
         0         0         0         0         0         0         0         0
         0         0         0         0         0         0         0         0
         0         0         0         0         0         0         0         0
         0         0         0         0         0         0         0         0
         0         0         0         0         0         0         0         0
         0         0         0         0         0         0         0         0
         0         0         0         0         0         0         0         0
         0         0         0         0         0         0         0         0
         0         0         0         0         0         0         0         0
         0         0         0         0         0         0         0         0
         0         0         0         0         0         0         0         0
         0         0         0         0         0         0         0         0
         0         0         0         0         0         0         0         0
         0         0         0         0         0         0         0         0
         0         0         0         0         0         0         0         0
         0         0         0         0         0         0         0         0
         0         0         0         0         0         0         0         0
         0         0         0         0         0         0         0         0
         0         0         0         0         0         0         0         0
         0         0         0         0         0         0         0         0
         0         0         0         0         0         0         0         0
         0         0         0         0         0         0         0         0
         0         0         0         0         0         0         0         0
         0         0         0         0         0         0         0         0
         0         0         0         0         0         0         0         0
         0         0         0         0         0         0         0         0
         0         0         0         0         0         0         0         0
         0         0         0         0         0         0         0         0
         0         0         0         0         0         0         0         0
         0         0         0         0         0         0         0         0
         0         0         0         0         0         0         0         0
         0         0         0         0         0         0         0         0
         0         0         0         0         0         0         0         0
         0         0         0         0         0         0         0         0
         0         0         0         0         0         0         0         0
         0         0         0         0         0         0         0         0
         0         0         0         0         0         0         0         0
         0         0         0         0         0         0         0         0
         0         0         0         0         0         0         0         0
         0         0         0         0         0         0         0         0
         0         0         0         0         0         0         0         0
         0         0         0         0         0         0         0         0
         0         0         0         0         0         0         0         0
         0         0         0         0         0         0         0         0
         0         0         0         0         0         0         0         0
         0         0         0         0         0         0         0         0
         0         0         0         0         0         0         0         0
         0         0         0         0         0         0         0         0
         0         0         0         0         0         0         0         0
         0         0         0         0         0         0         0         0
         0         0         0         0         0         0         0         0
         0         0         0         0         0         0         0         0
         0         0         0         0         0         0         0         0
         0         0         0         0         0         0         0         0
         0         0         0         0         0         0         0         0
         0         0         0         0         0         0         0         0
         0         0         0         0         0         0         0         0
         0         0         0         0         0         0         0         0
         0         0         0         0         0         0         0         0
         0         0         0         0         0         0         0         0
         0         0         0         0         0         0         0         0
         0         0         0         0         0         0         0         0
         0         0         0         0         0         0         0         0
         0         0         0         0         0         0         0         0
         0         0         0         0         0         0         0         0
         0         0         0         0         0         0         0         0
         0         0         0         0         0         0         0         0
         0         0         0         0         0         0         0         0
         0         0         0         0         0         0         0         0
         0         0         0         0         0         0         0         0
         0         0         0         0         0         0         0         0
         0         0         0         0         0         0         0         0
         0         0         0         0         0         0         0         0
         0         0         0         0         0         0         0         0
         0         0         0         0         0         0         0         0
         0         0         0         0         0         0         0         0
         0         0         0         0         0         0         0         0
         0         0         0         0         0         0         0         0
         0         0         0         0         0         0         0         0
         0         0         0         0         0         0         0         0
         0         0         0         0         0         0         0         0
         0         0         0         0         0         0         0         0
         0         0         0         0         0         0         0         0
         0         0         0         0         0         0         0         0
         0         0         0         0         0         0         0         0
         0         0         0         0         0         0         0         0
         0         0         0         0         0         0         0         0
         0         0         0         0         0         0         0         0
         0         0         0         0         0         0         0         0
         0         0         0         0         0         0         0         0
         0         0         0         0         0         0         0         0
         0         0         0         0         0         0         0         0
         0         0         0         0         0         0         0         0
         0         0         0         0         0         0         0         0
         0         0         0         0         0         0         0         0
         0         0         0         0         0         0         0         0
         0         0         0         0         0         0         0         0
         0         0         0         0         0         0         0         0
         0         0         0         0         0         0         0         0
         0         0         0         0         0         0         0         0
         0         0         0         0         0         0         0         0
         0         0         0         0         0         0         0         0
         0         0         0         0         0         0         0         0
         0         0         0         0         0         0         0         0
         0         0         0         0         0         0         0         0
         0         0         0         0         0         0         0         0
         0         0         0         0         0         0         0         0
         0         0         0         0         0         0         0         0
         0         0         0         0         0         0         0         0
         0         0         0         0         0         0         0         0
         0         0         0         0         0         0         0         0
         0         0         0         0         0         0         0         0
         0         0         0         0         0         0         0         0
         0         0         0         0         0         0         0         0
         0         0         0         0         0         0         0         0
         0         0         0         0         0         0         0         0
         0         0         0         0         0         0         0         0
         0         0         0         0         0         0         0         0
         0         0         0         0         0         0         0         0
         0         0         0         0         0         0         0         0
         0         0         0         0         0         0         0         0
         0         0         0         0         0         0         0         0
         0         0         0         0         0         0         0         0
         0         0         0         0         0         0         0         0
         0         0         0         0         0         0         0         0
         0         0         0         0         0         0         0         0
         0         0         0         0         0         0         0         0
         0         0         0         0         0         0         0         0
         0         0         0         0         0         0         0         0
         0         0         0         0         0         0         0         0
         0         0         0         0         0         0         0         0
         0         0         0         0         0         0         0         0
         0         0         0         0         0         0         0         0
         0         0         0         0         0         0         0         0
         0         0         0         0         0         0         0         0
         0         0         0         0         0         0         0         0
         0         0         0         0         0         0         0         0
         0         0         0         0         0         0         0         0
         0         0         0         0         0         0         0         0
         0         0         0         0         0         0         0         0
         0         0         0         0         0         0         0         0
         0         0         0         0         0         0         0         0
         0         0         0         0         0         0         0         0
         0         0         0         0         0         0         0         0
         0         0         0         0         0         0         0         0
         0         0         0         0         0         0         0         0
         0         0         0         0         0         0         0         0
         0         0         0         0         0         0         0         0
         0         0         0         0         0         0         0         0
         0         0         0         0         0         0         0         0
         0         0         0         0         0         0         0         0
         0         0         0         0         0         0         0         0
         0         0         0         0         0         0         0         0
         0         0         0         0         0         0         0         0
         0         0         0         0         0         0         0         0
         0         0         0         0         0         0         0         0
         0         0         0         0         0         0         0         0
         0         0         0         0         0         0         0         0
         0         0         0         0         0         0         0         0
         0         0         0         0         0         0         0         0
         0         0         0         0         0         0         0         0
         0         0         0         0         0         0         0         0
         0         0         0         0         0         0         0         0
         0         0         0         0         0         0         0         0
         0         0         0         0         0         0         0         0
         0         0         0         0         0         0         0         0
         0         0         0         0         0         0         0         0
         0         0         0         0         0         0         0         0
         0         0         0         0         0         0         0         0
         0         0         0         0         0         0         0         0
         0         0         0         0         0         0         0         0
         0         0         0         0         0         0         0         0
         0         0         0         0         0         0         0         0
         0         0         0         0         0         0         0         0
         0         0         0         0         0         0         0         0
         0         0         0         0         0         0         0         0
         0         0         0         0         0         0         0         0
         0         0         0         0         0         0         0         0
         0         0         0         0         0         0         0         0
         0         0         0         0         0         0         0         0
         0         0         0         0         0         0         0         0
         0         0         0         0         0         0         0         0
         0         0         0         0         0         0         0         0
         0         0         0         0         0         0         0         0
         0         0         0         0         0         0         0         0
         0         0         0         0         0         0         0         0
         0         0         0         0         0         0         0         0
         0         0         0         0         0         0         0         0
         0         0         0         0         0         0         0         0
         0         0         0         0         0         0         0         0
         0         0         0         0         0         0         0         0
         0         0         0         0         0         0         0         0
         0         0         0         0         0         0         0         0
         0         0         0         0         0         0         0         0
         0         0         0         0         0         0         0         0
         0         0         0         0         0         0         0         0
         0         0         0         0         0         0         0         0
         0         0         0         0         0         0         0         0
         0         0         0         0         0         0         0         0
         0         0         0         0         0         0         0         0
         0         0         0         0         0         0         0         0
         0         0         0         0         0         0         0         0
         0         0         0         0         0         0         0         0
         0         0         0         0         0         0         0         0
         0         0         0         0         0         0         0         0
         0         0         0         0         0         0         0         0
         0         0         0         0         0         0         0         0
         0         0         0         0         0         0         0         0
         0         0         0         0         0         0         0         0
         0         0         0         0         0         0         0         0
         0         0         0         0         0         0         0         0
         0         0         0         0         0         0         0         0
         0         0         0         0         0         0         0         0
         0         0         0         0         0         0         0         0
         0         0         0         0         0         0         0         0
         0         0         0         0         0         0         0         0
         0         0         0         0         0         0         0         0
         0         0         0         0         0         0         0         0
         0         0         0         0         0         0         0         0
         0         0         0         0         0         0         0         0
         0         0         0         0         0         0         0         0
         0         0         0         0         0         0         0         0
         0         0         0         0         0         0         0         0
         0         0         0         0         0         0         0         0
         0         0         0         0         0         0         0         0
         0         0         0         0         0         0         0         0
         0         0         0         0         0         0         0         0
         0         0         0         0         0         0         0         0
         0         0         0         0         0         0         0         0
         0         0         0         0         0         0         0         0
         0         0         0         0         0         0         0         0
         0         0         0         0         0         0         0         0
         0         0         0         0         0         0         0         0
         0         0         0         0         0         0         0         0
         0         0         0         0         0         0         0         0
         0         0         0         0         0         0         0         0
         0         0         0         0         0         0         0         0
         0         0         0         0         0         0         0         0
         0         0         0         0         0         0         0         0
         0         0         0         0         0         0         0         0
         0         0         0         0         0         0         0         0
         0         0         0         0         0         0         0         0
         0         0         0         0         0         0         0         0
         0         0         0         0         0         0         0         0
         0         0         0         0         0         0         0         0
         0         0         0         0         0         0         0         0
         0         0         0         0         0         0         0         0
         0         0         0         0         0         0         0         0
         0         0         0         0         0         0         0         0
         0         0         0         0         0         0         0         0
         0         0         0         0         0         0         0         0
         0         0         0         0         0         0         0         0
         0         0         0         0         0         0         0         0
         0         0         0         0         0         0         0         0
         0         0         0         0         0         0         0         0
         0         0         0         0         0         0         0         0
         0         0         0         0         0         0         0         0
         0         0         0         0         0         0         0         0
         0         0         0         0         0         0         0         0
         0         0         0         0         0         0         0         0
         0         0         0         0         0         0         0         0
         0         0         0         0         0         0         0         0
         0         0         0         0         0         0         0         0
         0         0         0         0         0         0         0         0
         0         0         0         0         0         0         0         0
         0         0         0         0         0         0         0         0
         0         0         0         0         0         0         0         0
         0         0         0         0         0         0         0         0
         0         0         0         0         0         0         0         0
         0         0         0         0         0         0         0         0
         0         0         0         0         0         0         0         0
         0         0         0         0         0         0         0         0
         0         0         0         0         0         0         0         0
         0         0         0         0         0         0         0         0
         0         0         0         0         0         0         0         0
         0         0         0         0         0         0         0         0
         0         0         0         0         0         0         0         0
         0         0         0         0         0         0         0         0
         0         0         0         0         0         0         0         0
         0         0         0         0         0         0         0         0
         0         0         0         0         0         0         0         0
         0         0         0         0         0         0         0         0
         0         0         0         0         0         0         0         0
         0         0         0         0         0         0         0         0
         0         0         0         0         0         0         0         0
         0         0         0         0         0         0         0         0
         0         0         0         0         0         0         0         0
         0         0         0         0         0         0         0         0
         0         0         0         0         0         0         0         0
         0         0         0         0         0         0         0         0
         0         0         0         0         0         0         0         0
         0         0         0         0         0         0         0         0
         0         0         0         0         0         0         0         0
         0         0         0         0         0         0         0         0
         0         0         0         0         0         0         0         0
         0         0         0         0         0         0         0         0
         0         0         0         0         0         0         0         0
         0         0         0         0         0         0         0         0
         0         0         0         0         0         0         0         0
         0         0         0         0         0         0         0         0
         0         0         0         0         0         0         0         0
         0         0         0         0         0         0         0         0
         0         0         0         0         0         0         0         0
         0         0         0         0         0         0         0         0
         0         0         0         0         0         0         0         0
         0         0         0         0         0         0         0         0
         0         0         0         0         0         0         0         0
         0         0         0         0         0         0         0         0
         0         0         0         0         0         0         0         0
         0         0         0         0         0         0         0         0
         0         0         0         0         0         0         0         0
         0         0         0         0         0         0         0         0
         0         0         0         0         0         0         0         0
         0         0         0         0         0         0         0         0
         0         0         0         0         0         0         0         0
         0         0         0         0         0         0         0         0
         0         0         0         0         0         0         0         0
         0         0         0         0         0         0         0         0
         0         0         0         0         0         0         0         0
         0         0         0         0         0         0         0         0
         0         0         0         0         0         0         0         0
         0         0         0         0         0         0         0         0
         0         0         0         0         0         0         0         0
         0         0         0         0         0         0         0         0
         0         0         0         0         0         0         0         0
         0         0         0         0         0         0         0         0
         0         0         0         0         0         0         0         0
         0         0         0         0         0         0         0         0
         0         0         0         0         0         0         0         0
         0         0         0         0         0         0         0         0
         0         0         0         0         0         0         0         0
         0         0         0         0         0         0         0         0
         0         0         0         0         0         0         0         0
         0         0         0         0         0         0         0         0
         0         0         0         0         0         0         0         0
         0         0         0         0         0         0         0         0
         0         0         0         0         0         0         0         0
         0         0         0         0         0         0         0         0
         0         0         0         0         0         0         0         0
         0         0         0         0         0         0         0         0
         0         0         0         0         0         0         0         0
         0         0         0         0         0         0         0         0
         0         0         0         0         0         0         0         0
         0         0         0         0         0         0         0         0
         0         0         0         0         0         0         0         0
         0         0         0         0         0         0         0         0
         0         0         0         0         0         0         0         0
         0         0         0         0         0         0         0         0
         0         0         0         0         0         0         0         0
         0         0         0         0         0         0         0         0
         0         0         0         0         0         0         0         0
         0         0         0         0         0         0         0         0
         0         0         0         0         0         0         0         0
         0         0         0         0         0         0         0         0
         0         0         0         0         0         0         0         0
         0         0         0         0         0         0         0         0
         0         0         0         0         0         0         0         0
         0         0         0         0         0         0         0         0
         0         0         0         0         0         0         0         0
         0         0         0         0         0         0         0         0
         0         0         0         0         0         0         0         0
         0         0         0         0         0         0         0         0
         0         0         0         0         0         0         0         0
         0         0         0         0         0         0         0         0
         0         0         0         0         0         0         0         0
         0         0         0         0         0         0         0         0
         0         0         0         0         0         0         0         0
         0         0         0         0         0         0         0         0
         0         0         0         0         0         0         0         0
         0         0         0         0         0         0         0         0
         0         0         0         0         0         0         0         0
         0         0         0         0         0         0         0         0
         0         0         0         0         0         0         0         0
         0         0         0         0         0         0         0         0
         0         0         0         0         0         0         0         0
         0         0         0         0         0         0         0         0
         0         0         0         0         0         0         0         0
         0         0         0         0         0         0         0         0
         0         0         0         0         0         0         0         0
         0         0         0         0         0         0         0         0
         0         0         0         0         0         0         0         0
         0         0         0         0         0         0         0         0
         0         0         0         0         0         0         0         0
         0         0         0         0         0         0         0         0
         0         0         0         0         0         0         0         0
         0         0         0         0         0         0         0         0
         0         0         0         0         0         0         0         0
         0         0         0         0         0         0         0         0
         0         0         0         0         0         0         0         0
         0         0         0         0         0         0         0         0
         0         0         0         0         0         0         0         0
         0         0         0         0         0         0         0         0
         0         0         0         0         0         0         0         0
         0         0         0         0         0         0         0         0
         0         0         0         0         0         0         0         0
         0         0         0         0         0         0         0         0
         0         0         0         0         0         0         0         0
         0         0         0         0         0         0         0         0
         0         0         0         0         0         0         0         0
         0         0         0         0         0         0         0         0
         0         0         0         0         0         0         0         0
         0         0         0         0         0         0         0         0
         0         0         0         0         0         0         0         0
         0         0         0         0         0         0         0         0
         0         0         0         0         0         0         0         0
         0         0         0         0         0         0         0         0
         0         0         0         0         0         0         0         0
         0         0         0         0         0         0         0         0
         0         0         0         0         0         0         0         0
         0         0         0         0         0         0         0         0
         0         0         0         0         0         0         0         0
         0         0         0         0         0         0         0         0
         0         0         0         0         0         0         0         0
         0         0         0         0         0         0         0         0
         0         0         0         0         0         0         0         0
         0         0         0         0         0         0         0         0
         0         0         0         0         0         0         0         0
         0         0         0         0         0         0         0         0
         0         0         0         0         0         0         0         0
         0         0         0         0         0         0         0         0
         0         0         0         0         0         0         0         0
         0         0         0         0         0         0         0         0
         0         0         0         0         0         0         0         0
         0         0         0         0         0         0         0         0
         0         0         0         0         0         0         0         0
         0         0         0         0         0         0         0         0
         0         0         0         0         0         0         0         0
         0         0         0         0         0         0         0         0
         0         0         0         0         0         0         0         0
         0         0         0         0         0         0         0         0
         0         0         0         0         0         0         0         0
         0         0         0         0         0         0         0         0
         0         0         0         0         0         0         0         0
         0         0         0         0         0         0         0         0
         0         0         0         0         0         0         0         0
         0         0         0         0         0         0         0         0
         0         0         0         0         0         0         0         0
         0         0         0         0         0         0         0         0
         0         0         0         0         0         0         0         0
         0         0         0         0         0         0         0         0
         0         0         0         0         0         0         0         0
         0         0         0         0         0         0         0         0
         0         0         0         0         0         0         0         0
         0         0         0         0         0         0         0         0
         0         0         0         0         0         0         0         0
         0         0         0         0         0         0         0         0
         0         0         0         0         0         0         0         0
         0         0         0         0         0         0         0         0
         0         0         0         0         0         0         0         0
         0         0         0         0         0         0         0         0
         0         0         0         0         0         0         0         0
         0         0         0         0         0         0         0         0
         0         0         0         0         0         0         0         0
         0         0         0         0         0         0         0         0
         0         0         0         0         0         0         0         0
         0         0         0         0         0         0         0         0
         0         0         0         0         0         0         0         0
         0         0         0         0         0         0         0         0
         0         0         0         0         0         0         0         0
         0         0         0         0         0         0         0         0
         0         0         0         0         0         0         0         0
         0         0         0         0         0         0         0         0
         0         0         0         0         0         0         0         0
         0         0         0         0         0         0         0         0
         0         0         0         0         0         0         0         0
         0         0         0         0         0         0         0         0
         0         0         0         0         0         0         0         0
         0         0         0         0         0         0         0         0
         0         0         0         0         0         0         0         0
         0         0         0         0         0         0         0         0
         0         0         0         0         0         0         0         0
         0         0         0         0         0         0         0         0
         0         0         0         0         0         0         0         0
         0         0         0         0         0         0         0         0
         0         0         0         0         0         0         0         0
         0         0         0         0         0         0         0         0
         0         0         0         0         0         0         0         0
         0         0         0         0         0         0         0         0
         0         0         0         0         0         0         0         0
         0         0         0         0         0         0         0         0
         0         0         0         0         0         0         0         0
         0         0         0         0         0         0         0         0
         0         0         0         0         0         0         0         0
         0         0         0         0         0         0         0         0
         0         0         0         0         0         0         0         0
         0         0         0         0         0         0         0         0
         0         0         0         0         0         0         0         0
         0         0         0         0         0         0         0         0
         0         0         0         0         0         0         0         0
         0         0         0         0         0         0         0         0
         0         0         0         0         0         0         0         0
         0         0         0         0         0         0         0         0
         0         0         0         0         0         0         0         0
         0         0         0         0         0         0         0         0
         0         0         0         0         0         0         0         0
         0         0         0         0         0         0         0         0
         0         0         0         0         0         0         0         0
         0         0         0         0         0         0         0         0
         0         0         0         0         0         0         0         0
         0         0         0         0         0         0         0         0
         0         0         0         0         0         0         0         0
         0         0         0         0         0         0         0         0
         0         0         0         0         0         0         0         0
         0         0         0         0         0         0         0         0
         0         0         0         0         0         0         0         0
         0         0         0         0         0         0         0         0
         0         0         0         0         0         0         0         0
         0         0         0         0         0         0         0         0
         0         0         0         0         0         0         0         0
         0         0         0         0         0         0         0         0
         0         0         0         0         0         0         0         0
         0         0         0         0         0         0         0         0
         0         0         0         0         0         0         0         0
         0         0         0         0         0         0         0         0
         0         0         0         0         0         0         0         0
         0         0         0         0         0         0         0         0
         0         0         0         0         0         0         0         0
         0         0         0         0         0         0         0         0
         0         0         0         0         0         0         0         0
         0         0         0         0         0         0         0         0
         0         0         0         0         0         0         0         0
         0         0         0         0         0         0         0         0
         0         0         0         0         0         0         0         0
         0         0         0         0         0         0         0         0
         0         0         0         0         0         0         0         0
         0         0         0         0         0         0         0         0
         0         0         0         0         0         0         0         0
         0         0         0         0         0         0         0         0
         0         0         0         0         0         0         0         0
         0         0         0         0         0         0         0         0
         0         0         0         0         0         0         0         0
         0         0         0         0         0         0         0         0
         0         0         0         0         0         0         0         0
         0         0         0         0         0         0         0         0
         0         0         0         0         0         0         0         0
         0         0         0         0         0         0         0         0
         0         0         0         0         0         0         0         0
         0         0         0         0         0         0         0         0
         0         0         0         0         0         0         0         0
         0         0         0         0         0         0         0         0
         0         0         0         0         0         0         0         0
         0         0         0         0         0         0         0         0
         0         0         0         0         0         0         0         0
         0         0         0         0         0         0         0         0
         0         0         0         0         0         0         0         0
         0         0         0         0         0         0         0         0
         0         0         0         0         0         0         0         0
         0         0         0         0         0         0         0         0
         0         0         0         0         0         0         0         0
         0         0         0         0         0         0         0         0
         0         0         0         0         0         0         0         0
         0         0         0         0         0         0         0         0
         0         0         0         0         0         0         0         0
         0         0         0         0         0         0         0         0
         0         0         0         0         0         0         0         0
         0         0         0         0         0         0         0         0
         0         0         0         0         0         0         0         0
         0         0         0         0         0         0         0         0
         0         0         0         0         0         0         0         0
         0         0         0         0         0         0         0         0
         0         0         0         0         0         0         0         0
         0         0         0         0         0         0         0         0
         0         0         0         0         0         0         0         0
         0         0         0         0         0         0         0         0
         0         0         0         0         0         0         0         0
         0         0         0         0         0         0         0         0
         0         0         0         0         0         0         0         0
         0         0         0         0         0         0         0         0
         0         0         0         0         0         0         0         0
         0         0         0         0         0         0         0         0
         0         0         0         0         0         0         0         0
         0         0         0         0         0         0         0         0
         0         0         0         0         0         0         0         0
         0         0         0         0         0         0         0         0
         0         0         0         0         0         0         0         0
         0         0         0         0         0         0         0         0
         0         0         0         0         0         0         0         0
         0         0         0         0         0         0         0         0
         0         0         0         0         0         0         0         0
         0         0         0         0         0         0         0         0
         0         0         0         0         0         0         0         0
         0         0         0         0         0         0         0         0
         0         0         0         0         0         0         0         0
         0         0         0         0         0         0         0         0
         0         0         0         0         0         0         0         0
         0         0         0         0         0         0         0         0
         0         0         0         0         0         0         0         0
         0         0         0         0         0         0         0         0
         0         0         0         0         0         0         0         0
         0         0         0         0         0         0         0         0
         0         0         0         0         0         0         0         0
         0         0         0         0         0         0         0         0
         0         0         0         0         0         0         0         0
         0         0         0         0         0         0         0         0
         0         0         0         0         0         0         0         0
         0         0         0         0         0         0         0         0
         0         0         0         0         0         0         0         0
         0         0         0         0         0         0         0         0
         0         0         0         0         0         0         0         0
         0         0         0         0         0         0         0         0
         0         0         0         0         0         0         0         0
         0         0         0         0         0         0         0         0
         0         0         0         0         0         0         0         0
         0         0         0         0         0         0         0         0
         0         0         0         0         0         0         0         0
         0         0         0         0         0         0         0         0
         0         0         0         0         0         0         0         0
         0         0         0         0         0         0         0         0
         0         0         0         0         0         0         0         0
         0         0         0         0         0         0         0         0
         0         0         0         0         0         0         0         0
         0         0         0         0         0         0         0         0
         0         0         0         0         0         0         0         0
         0         0         0         0         0         0         0         0
         0         0         0         0         0         0         0         0
         0         0         0         0         0         0         0         0
         0         0         0         0         0         0         0         0
         0         0         0         0         0         0         0         0
         0         0         0         0         0         0         0         0
         0         0         0         0         0         0         0         0
         0         0         0         0         0         0         0         0
         0         0         0         0         0         0         0         0
         0         0         0         0         0         0         0         0
         0         0         0         0         0         0         0         0
         0         0         0         0         0         0         0         0
         0         0         0         0         0         0         0         0
         0         0         0         0         0         0         0         0
         0         0         0         0         0         0         0         0
         0         0         0         0         0         0         0         0
         0         0         0         0         0         0         0         0
         0         0         0         0         0         0         0         0
         0         0         0         0         0         0         0         0
         0         0         0         0         0         0         0         0
         0         0         0         0         0         0         0         0
         0         0         0         0         0         0         0         0
         0         0         0         0         0         0         0         0
         0         0         0         0         0         0         0         0
         0         0         0         0         0         0         0         0
         0         0         0         0         0         0         0         0
         0         0         0         0         0         0         0         0
         0         0         0         0         0         0         0         0
         0         0         0         0         0         0         0         0
         0         0         0         0         0         0         0         0
         0         0         0         0         0         0         0         0
         0         0         0         0         0         0         0         0
         0         0         0         0         0         0         0         0
         0         0         0         0         0         0         0         0
         0         0         0         0         0         0         0         0
         0         0         0         0         0         0         0         0
         0         0         0         0         0         0         0         0
         0         0         0         0         0         0         0         0
         0         0         0         0         0         0         0         0
         0         0         0         0         0         0         0         0
         0         0         0         0         0         0         0         0
         0         0         0         0         0         0         0         0
         0         0         0         0         0         0         0         0
         0         0         0         0         0         0         0         0
         0         0         0         0         0         0         0         0
         0         0         0         0         0         0         0         0
         0         0         0         0         0         0         0         0
         0         0         0         0         0         0         0         0
         0         0         0         0         0         0         0         0
         0         0         0         0         0         0         0         0
         0         0         0         0         0         0         0         0
         0         0         0         0         0         0         0         0
         0         0         0         0         0         0         0         0
         0         0         0         0         0         0         0         0
         0         0         0         0         0         0         0         0
         0         0         0         0         0         0         0         0
         0         0         0         0         0         0         0         0
         0         0         0         0         0         0         0         0
         0         0         0         0         0         0         0         0
         0         0         0         0         0         0         0         0
         0         0         0         0         0         0         0         0
         0         0         0         0         0         0         0         0
         0         0         0         0         0         0         0         0
         0         0         0         0         0         0         0         0
         0         0         0         0         0         0         0         0
         0         0         0         0         0         0         0         0
         0         0         0         0         0         0         0         0
         0         0         0         0         0         0         0         0
         0         0         0         0         0         0         0         0
         0         0         0         0         0         0         0         0
         0         0         0         0         0         0         0         0
         0         0         0         0         0         0         0         0
         0         0         0         0         0         0         0         0
         0         0         0         0         0         0         0         0
         0         0         0         0         0         0         0         0
         0         0         0         0         0         0         0         0
         0         0         0         0         0         0         0         0
         0         0         0         0         0         0         0         0
         0         0         0         0         0         0         0         0
         0         0         0         0         0         0         0         0
         0         0         0         0         0         0         0         0
         0         0         0         0         0         0         0         0
         0         0         0         0         0         0         0         0
         0         0         0         0         0         0         0         0
         0         0         0         0         0         0         0         0
         0         0         0         0         0         0         0         0
         0         0         0         0         0         0         0         0
         0         0         0         0         0         0         0         0
         0         0         0         0         0         0         0         0
         0         0         0         0         0         0         0         0
         0         0         0         0         0         0         0         0
         0         0         0         0         0         0         0         0
         0         0         0         0         0         0         0         0
         0         0         0         0         0         0         0         0
         0         0         0         0         0         0         0         0
         0         0         0         0         0         0         0         0
         0         0         0         0         0         0         0         0
         0         0         0         0         0         0         0         0
         0         0         0         0         0         0         0         0
         0         0         0         0         0         0         0         0
         0         0         0         0         0         0         0         0
         0         0         0         0         0         0         0         0
         0         0         0         0         0         0         0         0
         0         0         0         0         0         0         0         0
         0         0         0         0         0         0         0         0
         0         0         0         0         0         0         0         0
         0         0         0         0         0         0         0         0
         0         0         0         0         0         0         0         0
         0         0         0         0         0         0         0         0
         0         0         0         0         0         0         0         0
         0         0         0         0         0         0         0         0
         0         0         0         0         0         0         0         0
         0         0         0         0         0         0         0         0
         0         0         0         0         0         0         0         0
         0         0         0         0         0         0         0         0
         0         0         0         0         0         0         0         0
         0         0         0         0         0         0         0         0
         0         0         0         0         0         0         0         0
         0         0         0         0         0         0         0         0
         0         0         0         0         0         0         0         0
         0         0         0         0         0         0         0         0
         0         0         0         0         0         0         0         0
         0         0         0         0         0         0         0         0
         0         0         0         0         0         0         0         0
         0         0         0         0         0         0         0         0
         0         0         0         0         0         0         0         0
         0         0         0         0         0         0         0         0
         0         0         0         0         0         0         0         0
         0         0         0         0         0         0         0         0
         0         0         0         0         0         0         0         0
         0         0         0         0         0         0         0         0
         0         0         0         0         0         0         0         0
         0         0         0         0         0         0         0         0
         0         0         0         0         0         0         0         0
         0         0         0         0         0         0         0         0
         0         0         0         0         0         0         0         0
         0         0         0         0         0         0         0         0
         0         0         0         0         0         0         0         0
         0         0         0         0         0         0         0         0
         0         0         0         0         0         0         0         0
         0         0         0         0         0         0         0         0
         0         0         0         0         0         0         0         0
         0         0         0         0         0         0         0         0
         0         0         0         0         0         0         0         0
         0         0         0         0         0         0         0         0
         0         0         0         0         0         0         0         0
         0         0         0         0         0         0         0         0
         0         0         0         0         0         0         0         0
         0         0         0         0         0         0         0         0
         0         0         0         0         0         0         0         0
         0         0         0         0         0         0         0         0
         0         0         0         0         0         0         0         0
         0         0         0         0         0         0         0         0
         0         0         0         0         0         0         0         0
         0         0         0         0         0         0         0         0
         0         0         0         0         0         0         0         0
         0         0         0         0         0         0         0         0
         0         0         0         0         0         0         0         0
         0         0         0         0         0         0         0         0
         0         0         0         0         0         0         0         0
         0         0         0         0         0         0         0         0
         0         0         0         0         0         0         0         0
         0         0         0         0         0         0         0         0
         0         0         0         0         0         0         0         0
         0         0         0         0         0         0         0         0
         0         0         0         0         0         0         0         0
         0         0         0         0         0         0         0         0
         0         0         0         0         0         0         0         0
         0         0         0         0         0         0         0         0
         0         0         0         0         0         0         0         0
         0         0         0         0         0         0         0         0
         0         0         0         0         0         0         0         0
         0         0         0         0         0         0         0         0
         0         0         0         0         0         0         0         0
         0         0         0         0         0         0         0         0
         0         0         0         0         0         0         0         0
         0         0         0         0         0         0         0         0
         0         0         0         0         0         0         0         0
         0         0         0         0         0         0         0         0
         0         0         0         0         0         0         0         0
         0         0         0         0         0         0         0         0
         0         0         0         0         0         0         0         0
         0         0         0         0         0         0         0         0
         0         0         0         0         0         0         0         0
         0         0         0         0         0         0         0         0
         0         0         0         0         0         0         0         0
         0         0         0         0         0         0         0         0
         0         0         0         0         0         0         0         0
         0         0         0         0         0         0         0         0
         0         0         0         0         0         0         0         0
         0         0         0         0         0         0         0         0
         0         0         0         0         0         0         0         0
         0         0         0         0         0         0         0         0
         0         0         0         0         0         0         0         0
         0         0         0         0         0         0         0         0
         0         0         0         0         0         0         0         0
         0         0         0         0         0         0         0         0
         0         0         0         0         0         0         0         0
         0         0         0         0         0         0         0         0
         0         0         0         0         0         0         0         0
         0         0         0         0         0         0         0         0
         0         0         0         0         0         0         0         0
         0         0         0         0         0         0         0         0
         0         0         0         0         0         0         0         0
         0         0         0         0         0         0         0         0
         0         0         0         0         0         0         0         0
         0         0         0         0         0         0         0         0
         0         0         0         0         0         0         0         0
         0         0         0         0         0         0         0         0
         0         0         0         0         0         0         0         0
         0         0         0         0         0         0         0         0
         0         0         0         0         0         0         0         0
         0         0         0         0         0         0         0         0
         0         0         0         0         0         0         0         0
         0         0         0         0         0         0         0         0
         0         0         0         0         0         0         0         0
         0         0         0         0         0         0         0         0
         0         0         0         0         0         0         0         0
         0         0         0         0         0         0         0         0
         0         0         0         0         0         0         0         0
         0         0         0         0         0         0         0         0
         0         0         0         0         0         0         0         0
         0         0         0         0         0         0         0         0
         0         0         0         0         0         0         0         0
         0         0         0         0         0         0         0         0
         0         0         0         0         0         0         0         0
         0         0         0         0         0         0         0         0
         0         0         0         0         0         0         0         0
         0         0         0         0         0         0         0         0
         0         0         0         0         0         0         0         0
         0         0         0         0         0         0         0         0
         0         0         0         0         0         0         0         0
         0         0         0         0         0         0         0         0
         0         0         0         0         0         0         0         0
         0         0         0         0         0         0         0         0
         0         0         0         0         0         0         0         0
         0         0         0         0         0         0         0         0
         0         0         0         0         0         0         0         0
         0         0         0         0         0         0         0         0
         0         0         0         0         0         0         0         0
         0         0         0         0         0         0         0         0
         0         0         0         0         0         0         0         0
         0         0         0         0         0         0         0         0
         0         0         0         0         0         0         0         0
         0         0         0         0         0         0         0         0
         0         0         0         0         0         0         0         0
         0         0         0         0         0         0         0         0
         0         0         0         0         0         0         0         0
         0         0         0         0         0         0         0         0
         0         0         0         0         0         0         0         0
         0         0         0         0         0         0         0         0
         0         0         0         0         0         0         0         0
         0         0         0         0         0         0         0         0
         0         0         0         0         0         0         0         0
         0         0         0         0         0         0         0         0
         0         0         0         0         0         0         0         0
         0         0         0         0         0         0         0         0
         0         0         0         0         0         0         0         0
         0         0         0         0         0         0         0         0
         0         0         0         0         0         0         0         0
         0         0         0         0         0         0         0         0
         0         0         0         0         0         0         0         0
         0         0         0         0         0         0         0         0
         0         0         0         0         0         0         0         0
         0         0         0         0         0         0         0         0
         0         0         0         0         0         0         0         0
         0         0         0         0         0         0         0         0
         0         0         0         0         0         0         0         0
         0         0         0         0         0         0         0         0
         0         0         0         0         0         0         0         0
         0         0         0         0         0         0         0         0
         0         0         0         0         0         0         0         0
         0         0         0         0         0         0         0         0
         0         0         0         0         0         0         0         0
         0         0         0         0         0         0         0         0
         0         0         0         0         0         0         0         0
         0         0         0         0         0         0         0         0
         0         0         0         0         0         0         0         0
         0         0         0         0         0         0         0         0
         0         0         0         0         0         0         0         0
         0         0         0         0         0         0         0         0
         0         0         0         0         0         0         0         0
         0         0         0         0         0         0         0         0
         0         0         0         0         0         0         0         0
         0         0         0         0         0         0         0         0
         0         0         0         0         0         0         0         0
         0         0         0         0         0         0         0         0
         0         0         0         0         0         0         0         0
         0         0         0         0         0         0         0         0
         0         0         0         0         0         0         0         0
         0         0         0         0         0         0         0         0
         0         0         0         0         0         0         0         0
         0         0         0         0         0         0         0         0
         0         0         0         0         0         0         0         0
         0         0         0         0         0         0         0         0
         0         0         0         0         0         0         0         0
         0         0         0         0         0         0         0         0
         0         0         0         0         0         0         0         0
         0         0         0         0         0         0         0         0
         0         0         0         0         0         0         0         0
         0         0         0         0         0         0         0         0
         0         0         0         0         0         0         0         0
         0         0         0         0         0         0         0         0
         0         0         0         0         0         0         0         0
         0         0         0         0         0         0         0         0
         0         0         0         0         0         0         0         0
         0         0         0         0         0         0         0         0
         0         0         0         0         0         0         0         0
         0         0         0         0         0         0         0         0
         0         0         0         0         0         0         0         0
         0         0         0         0         0         0         0         0
         0         0         0         0         0         0         0         0
         0         0         0         0         0         0         0         0
         0         0         0         0         0         0         0         0
         0         0         0         0         0         0         0         0
         0         0         0         0         0         0         0         0
         0         0         0         0         0         0         0         0
         0         0         0         0         0         0         0         0
         0         0         0         0         0         0         0         0
         0         0         0         0         0         0         0         0
         0         0         0         0         0         0         0         0
         0         0         0         0         0         0         0         0
         0         0         0         0         0         0         0         0
         0         0         0         0         0         0         0         0
         0         0         0         0         0         0         0         0
         0         0         0         0         0         0         0         0
         0         0         0         0         0         0         0         0
         0         0         0         0         0         0         0         0
         0         0         0         0         0         0         0         0
         0         0         0         0         0         0         0         0
         0         0         0         0         0         0         0         0
         0         0         0         0         0         0         0         0
         0         0         0         0         0         0         0         0
         0         0         0         0         0         0         0         0
         0         0         0         0         0         0         0         0
         0         0         0         0         0         0         0         0
         0         0         0         0         0         0         0         0
         0         0         0         0         0         0         0         0
         0         0         0         0         0         0         0         0
         0         0         0         0         0         0         0         0
         0         0         0         0         0         0         0         0
         0         0         0         0         0         0         0         0
         0         0         0         0         0         0         0         0
         0         0         0         0         0         0         0         0
         0         0         0         0         0         0         0         0
         0         0         0         0         0         0         0         0
         0         0         0         0         0         0         0         0
         0         0         0         0         0         0         0         0
         0         0         0         0         0         0         0         0
         0         0         0         0         0         0         0         0
         0         0         0         0         0         0         0         0
         0         0         0         0         0         0         0         0
         0         0         0         0         0         0         0         0
         0         0         0         0         0         0         0         0
         0         0         0         0         0         0         0         0
         0         0         0         0         0         0         0         0
         0         0         0         0         0         0         0         0
         0         0         0         0         0         0         0         0
         0         0         0         0         0         0         0         0
         0         0         0         0         0         0         0         0
         0         0         0         0         0         0         0         0
         0         0         0         0         0         0         0         0
         0         0         0         0         0         0         0         0
         0         0         0         0         0         0         0         0
         0         0         0         0         0         0         0         0
         0         0         0         0         0         0         0         0
         0         0         0         0         0         0         0         0
         0         0         0         0         0         0         0         0
         0         0         0         0         0         0         0         0
         0         0         0         0         0         0         0         0
         0         0         0         0         0         0         0         0
         0         0         0         0         0         0         0         0
         0         0         0         0         0         0         0         0
         0         0         0         0         0         0         0         0
         0         0         0         0         0         0         0         0
         0         0         0         0         0         0         0         0
         0         0         0         0         0         0         0         0
         0         0         0         0         0         0         0         0
         0         0         0         0         0         0         0         0
         0         0         0         0         0         0         0         0
         0         0         0         0         0         0         0         0
         0         0         0         0         0         0         0         0
         0         0         0         0         0         0         0         0
         0         0         0         0         0         0         0         0
         0         0         0         0         0         0         0         0
         0         0         0         0         0         0         0         0
         0         0         0         0         0         0         0         0
         0         0         0         0         0         0         0         0
         0         0         0         0         0         0         0         0
         0         0         0         0         0         0         0         0
         0         0         0         0         0         0         0         0
         0         0         0         0         0         0         0         0
         0         0         0         0         0         0         0         0
         0         0         0         0         0         0         0         0
         0         0         0         0         0         0         0         0
         0         0         0         0         0         0         0         0
         0         0         0         0         0         0         0         0
         0         0         0         0         0         0         0         0
         0         0         0         0         0         0         0         0
         0         0         0         0         0         0         0         0
         0         0         0         0         0         0         0         0
         0         0         0         0         0         0         0         0
         0         0         0         0         0         0         0         0
         0         0         0         0         0         0         0         0
         0         0         0         0         0         0         0         0
         0         0         0         0         0         0         0         0
         0         0         0         0         0         0         0         0
         0         0         0         0         0         0         0         0
         0         0         0         0         0         0         0         0
         0         0         0         0         0         0         0         0
         0         0         0         0         0         0         0         0
         0         0         0         0         0         0         0         0
         0         0         0         0         0         0         0         0
         0         0         0         0         0         0         0         0
         0         0         0         0         0         0         0         0
         0         0         0         0         0         0         0         0
         0         0         0         0         0         0         0         0
         0         0         0         0         0         0         0         0
         0         0         0         0         0         0         0         0
         0         0         0         0         0         0         0         0
         0         0         0         0         0         0         0         0
         0         0         0         0         0         0         0         0
         0         0         0         0         0         0         0         0
         0         0         0         0         0         0         0         0
         0         0         0         0         0         0         0         0
         0         0         0         0         0         0         0         0
         0         0         0         0         0         0         0         0
         0         0         0         0         0         0         0         0
         0         0         0         0         0         0         0         0
         0         0         0         0         0         0         0         0
         0         0         0         0         0         0         0         0
         0         0         0         0         0         0         0         0
         0         0         0         0         0         0         0         0
         0         0         0         0         0         0         0         0
         0         0         0         0         0         0         0         0
         0         0         0         0         0         0         0         0
         0         0         0         0         0         0         0         0
         0         0         0         0         0         0         0         0
         0         0         0         0         0         0         0         0
         0         0         0         0         0         0         0         0
         0         0         0         0         0         0         0         0
         0         0         0         0         0         0         0         0
         0         0         0         0         0         0         0         0
         0         0         0         0         0         0         0         0
         0         0         0         0         0         0         0         0
         0         0         0         0         0         0         0         0
         0         0         0         0         0         0         0         0
         0         0         0         0         0         0         0         0
         0         0         0         0         0         0         0         0
         0         0         0         0         0         0         0         0
         0         0         0         0         0         0         0         0
         0         0         0         0         0         0         0         0
         0         0         0         0         0         0         0         0
         0         0         0         0         0         0         0         0
         0         0         0         0         0         0         0         0
         0         0         0         0         0         0         0         0
         0         0         0         0         0         0         0         0
         0         0         0         0         0         0         0         0
         0         0         0         0         0         0         0         0
         0         0         0         0         0         0         0         0
         0         0         0         0         0         0         0         0
         0         0         0         0         0         0         0         0
         0         0         0         0         0         0         0         0
         0         0         0         0         0         0         0         0
         0         0         0         0         0         0         0         0
         0         0         0         0         0         0         0         0
         0         0         0         0         0         0         0         0
         0         0         0         0         0         0         0         0
         0         0         0         0         0         0         0         0
         0         0         0         0         0         0         0         0
         0         0         0         0         0         0         0         0
         0         0         0         0         0         0         0         0
         0         0         0         0         0         0         0         0
         0         0         0         0         0         0         0         0
         0         0         0         0         0         0         0         0
         0         0         0         0         0         0         0         0
         0         0         0         0         0         0         0         0
         0         0         0         0         0         0         0         0
         0         0         0         0         0         0         0         0
         0         0         0         0         0         0         0         0
         0         0         0         0         0         0         0         0
         0         0         0         0         0         0         0         0
         0         0         0         0         0         0         0         0
         0         0         0         0         0         0         0         0
         0         0         0         0         0         0         0         0
         0         0         0         0         0         0         0         0
         0         0         0         0         0         0         0         0
         0         0         0         0         0         0         0         0
         0         0         0         0         0         0         0         0
         0         0         0         0         0         0         0         0
         0         0         0         0         0         0         0         0
         0         0         0         0         0         0         0         0
         0         0         0         0         0         0         0         0
         0         0         0         0         0         0         0         0
         0         0         0         0         0         0         0         0
         0         0         0         0         0         0         0         0
         0         0         0         0         0         0         0         0
         0         0         0         0         0         0         0         0
         0         0         0         0         0         0         0         0
         0         0         0         0         0         0         0         0
         0         0         0         0         0         0         0         0
         0         0         0         0         0         0         0         0
         0         0         0         0         0         0         0         0
         0         0         0         0         0         0         0         0
         0         0         0         0         0         0         0         0
         0         0         0         0         0         0         0         0
         0         0         0         0         0         0         0         0
         0         0         0         0         0         0         0         0
         0         0         0         0         0         0         0         0
         0         0         0         0         0         0         0         0
         0         0         0         0         0         0         0         0
         0         0         0         0         0         0         0         0
         0         0         0         0         0         0         0         0
         0         0         0         0         0         0         0         0
         0         0         0         0         0         0         0         0
         0         0         0         0         0         0         0         0
         0         0         0         0         0         0         0         0
         0         0         0         0         0         0         0         0
         0         0         0         0         0         0         0         0
         0         0         0         0         0         0         0         0
         0         0         0         0         0         0         0         0
         0         0         0         0         0         0         0         0
         0         0         0         0         0         0         0         0
         0         0         0         0         0         0         0         0
         0         0         0         0         0         0         0         0
         0         0         0         0         0         0         0         0
         0         0         0         0         0         0         0         0
         0         0         0         0         0         0         0         0
         0         0         0         0         0         0         0         0
         0         0         0         0         0         0         0         0
         0         0         0         0         0         0         0         0
         0         0         0         0         0         0         0         0
         0         0         0         0         0         0         0         0
         0         0         0         0         0         0         0         0
         0         0         0         0         0         0         0         0
         0         0         0         0         0         0         0         0
         0         0         0         0         0         0         0         0
         0         0         0         0         0         0         0         0
         0         0         0         0         0         0         0         0
         0         0         0         0         0         0         0         0
         0         0         0         0         0         0         0         0
         0         0         0         0         0         0         0         0
         0         0         0         0         0         0         0         0
         0         0         0         0         0         0         0         0
         0         0         0         0         0         0         0         0
         0         0         0         0         0         0         0         0
         0         0         0         0         0         0         0         0
         0         0         0         0         0         0         0         0
         0         0         0         0         0         0         0         0
         0         0         0         0         0         0         0         0
         0         0         0         0         0         0         0         0
         0         0         0         0         0         0         0         0
         0         0         0         0         0         0         0         0
         0         0         0         0         0         0         0         0
         0         0         0         0         0         0         0         0
         0         0         0         0         0         0         0         0
         0         0         0         0         0         0         0         0
         0         0         0         0         0         0         0         0
         0         0         0         0         0         0         0         0
         0         0         0         0         0         0         0         0
         0         0         0         0         0         0         0         0
         0         0         0         0         0         0         0         0
         0         0         0         0         0         0         0         0
         0         0         0         0         0         0         0         0
         0         0         0         0         0         0         0         0
         0         0         0         0         0         0         0         0
         0         0         0         0         0         0         0         0
         0         0         0         0         0         0         0         0
         0         0         0         0         0         0         0         0
         0         0         0         0         0         0         0         0
         0         0         0         0         0         0         0         0
         0         0         0         0         0         0         0         0
         0         0         0         0         0         0         0         0
         0         0         0         0         0         0         0         0
         0         0         0         0         0         0         0         0
         0         0         0         0         0         0         0         0
         0         0         0         0         0         0         0         0
         0         0         0         0         0         0         0         0
         0         0         0         0         0         0         0         0
         0         0         0         0         0         0         0         0
         0         0         0         0         0         0         0         0
         0         0         0         0         0         0         0         0
         0         0         0         0         0         0         0         0
         0         0         0         0         0         0         0         0
         0         0         0         0         0         0         0         0
         0         0         0         0         0         0         0         0
         0         0         0         0         0         0         0         0
         0         0         0         0         0         0         0         0
         0         0         0         0         0         0         0         0
         0         0         0         0         0         0         0         0
         0         0         0         0         0         0         0         0
         0         0         0         0         0         0         0         0
         0         0         0         0         0         0         0         0
         0         0         0         0         0         0         0         0
         0         0         0         0         0         0         0         0
         0         0         0         0         0         0         0         0
         0         0         0         0         0         0         0         0
         0         0         0         0         0         0         0         0
         0         0         0         0         0         0         0         0
         0         0         0         0         0         0         0         0
         0         0         0         0         0         0         0         0
         0         0         0         0         0         0         0         0
         0         0         0         0         0         0         0         0
         0         0         0         0         0         0         0         0
         0         0         0         0         0         0         0         0
         0         0         0         0         0         0         0         0
         0         0         0         0         0         0         0         0
         0         0         0         0         0         0         0         0
         0         0         0         0         0         0         0         0
         0         0         0         0         0         0         0         0
         0         0         0         0         0         0         0         0
         0         0         0         0         0         0         0         0
         0         0         0         0         0         0         0         0
         0         0         0         0         0         0         0         0
         0         0         0         0         0         0         0         0
         0         0         0         0         0         0         0         0
         0         0         0         0         0         0         0         0
         0         0         0         0         0         0         0         0
         0         0         0         0         0         0         0         0
         0         0         0         0         0         0         0         0
         0         0         0         0         0         0         0         0
         0         0         0         0         0         0         0         0
         0         0         0         0         0         0         0         0
         0         0         0         0         0         0         0         0
         0         0         0         0         0         0         0         0
         0         0         0         0         0         0         0         0
         0         0         0         0         0         0         0         0
         0         0         0         0         0         0         0         0
         0         0         0         0         0         0         0         0
         0         0         0         0         0         0         0         0
         0         0         0         0         0         0         0         0
         0         0         0         0         0         0         0         0
         0         0         0         0         0         0         0         0
         0         0         0         0         0         0         0         0
         0         0         0         0         0         0         0         0
         0         0         0         0         0         0         0         0
         0         0         0         0         0         0         0         0
         0         0         0         0         0         0         0         0
         0         0         0         0         0         0         0         0
         0         0         0         0         0         0         0         0
         0         0         0         0         0         0         0         0
         0         0         0         0         0         0         0         0
         0         0         0         0         0         0         0         0
         0         0         0         0         0         0         0         0
         0         0         0         0         0         0         0         0
         0         0         0         0         0         0         0         0
         0         0         0         0         0         0         0         0
         0         0         0         0         0         0         0         0
         0         0         0         0         0         0         0         0
         0         0         0         0         0         0         0         0
         0         0         0         0         0         0         0         0
         0         0         0         0         0         0         0         0
         0         0         0         0         0         0         0         0
         0         0         0         0         0         0         0         0
         0         0         0         0         0         0         0         0
         0         0         0         0         0         0         0         0
         0         0         0         0         0         0         0         0
         0         0         0         0         0         0         0         0
         0         0         0         0         0         0         0         0
         0         0         0         0         0         0         0         0
         0         0         0         0         0         0         0         0
         0         0         0         0         0         0         0         0
         0         0         0         0         0         0         0         0
         0         0         0         0         0         0         0         0
         0         0         0         0         0         0         0         0
         0         0         0         0         0         0         0         0
         0         0         0         0         0         0         0         0
         0         0         0         0         0         0         0         0
         0         0         0         0         0         0         0         0
         0         0         0         0         0         0         0         0
         0         0         0         0         0         0         0         0
         0         0         0         0         0         0         0         0
         0         0         0         0         0         0         0         0
         0         0         0         0         0         0         0         0
         0         0         0         0         0         0         0         0
         0         0         0         0         0         0         0         0
         0         0         0         0         0         0         0         0
         0         0         0         0         0         0         0         0
         0         0         0         0         0         0         0         0
         0         0         0         0         0         0         0         0
         0         0         0         0         0         0         0         0
         0         0         0         0         0         0         0         0
         0         0         0         0         0         0         0         0
         0         0         0         0         0         0         0         0
         0         0         0         0         0         0         0         0
         0         0         0         0         0         0         0         0
         0         0         0         0         0         0         0         0
         0         0         0         0         0         0         0         0
         0         0         0         0         0         0         0         0
         0         0         0         0         0         0         0         0
         0         0         0         0         0         0         0         0
         0         0         0         0         0         0         0         0
         0         0         0         0         0         0         0         0
         0         0         0         0         0         0         0         0
         0         0         0         0         0         0         0         0
         0         0         0         0         0         0         0         0
         0         0         0         0         0         0         0         0
         0         0         0         0         0         0         0         0
         0         0         0         0         0         0         0         0
         0         0         0         0         0         0         0         0
         0         0         0         0         0         0         0         0
         0         0         0         0         0         0         0         0
         0         0         0         0         0         0         0         0
         0         0         0         0         0         0         0         0
         0         0         0         0         0         0         0         0
         0         0         0         0         0         0         0         0
         0         0         0         0         0         0         0         0
         0         0         0         0         0         0         0         0
         0         0         0         0         0         0         0         0
         0         0         0         0         0         0         0         0
         0         0         0         0         0         0         0         0
         0         0         0         0         0         0         0         0
         0         0         0         0         0         0         0         0
         0         0         0         0         0         0         0         0
         0         0         0         0         0         0         0         0
         0         0         0         0         0         0         0         0
         0         0         0         0         0         0         0         0
         0         0         0         0         0         0         0         0
         0         0         0         0         0         0         0         0
         0         0         0         0         0         0         0         0
         0         0         0         0         0         0         0         0
         0         0         0         0         0         0         0         0
         0         0         0         0         0         0         0         0
         0         0         0         0         0         0         0         0
         0         0         0         0         0         0         0         0
         0         0         0         0         0         0         0         0
         0         0         0         0         0         0         0         0
         0         0         0         0         0         0         0         0
         0         0         0         0         0         0         0         0
         0         0         0         0         0         0         0         0
         0         0         0         0         0         0         0         0
         0         0         0         0         0         0         0         0
         0         0         0         0         0         0         0         0
         0         0         0         0         0         0         0         0
         0         0         0         0         0         0         0         0
         0         0         0         0         0         0         0         0
         0         0         0         0         0         0         0         0
         0         0         0         0         0         0         0         0
         0         0         0         0         0         0         0         0
         0         0         0         0         0         0         0         0
         0         0         0         0         0         0         0         0
         0         0         0         0         0         0         0         0
         0         0         0         0         0         0         0         0
         0         0         0         0         0         0         0         0
         0         0         0         0         0         0         0         0
         0         0         0         0         0         0         0         0
         0         0         0         0         0         0         0         0
         0         0         0         0         0         0         0         0
         0         0         0         0         0         0         0         0
         0         0         0         0         0         0         0         0
         0         0         0         0         0         0         0         0
         0         0         0         0         0         0         0         0
         0         0         0         0         0         0         0         0
         0         0         0         0         0         0         0         0
         0         0         0         0         0         0         0         0
         0         0         0         0         0         0         0         0
         0         0         0         0         0         0         0         0
         0         0         0         0         0         0         0         0
         0         0         0         0         0         0         0         0
         0         0         0         0         0         0         0         0
         0         0         0         0         0         0         0         0
         0         0         0         0         0         0         0         0
         0         0         0         0         0         0         0         0
         0         0         0         0         0         0         0         0
         0         0         0         0         0         0         0         0
         0         0         0         0         0         0         0         0
         0         0         0         0         0         0         0         0
         0         0         0         0         0         0         0         0
         0         0         0         0         0         0         0         0
         0         0         0         0         0         0         0         0
         0         0         0         0         0         0         0         0
         0         0         0         0         0         0         0         0
         0         0         0         0         0         0         0         0
         0         0         0         0         0         0         0         0
         0         0         0         0         0         0         0         0
         0         0         0         0         0         0         0         0
         0         0         0         0         0         0         0         0
         0         0         0         0         0         0         0         0
         0         0         0         0         0         0         0         0
         0         0         0         0         0         0         0         0
         0         0         0         0         0         0         0         0
         0         0         0         0         0         0         0         0
         0         0         0         0         0         0         0         0
         0         0         0         0         0         0         0         0
         0         0         0         0         0         0         0         0
         0         0         0         0         0         0         0         0
         0         0         0         0         0         0         0         0
         0         0         0         0         0         0         0         0
         0         0         0         0         0         0         0         0
         0         0         0         0         0         0         0         0
         0         0         0         0         0         0         0         0
         0         0         0         0         0         0         0         0
         0         0         0         0         0         0         0         0
         0         0         0         0         0         0         0         0
         0         0         0         0         0         0         0         0
         0         0         0         0         0         0         0         0
         0         0         0         0         0         0         0         0
         0         0         0         0         0         0         0         0
         0         0         0         0         0         0         0         0
         0         0         0         0         0         0         0         0
         0         0         0         0         0         0         0         0
         0         0         0         0         0         0         0         0
         0         0         0         0         0         0         0         0
         0         0         0         0         0         0         0         0
         0         0         0         0         0         0         0         0
         0         0         0         0         0         0         0         0
         0         0         0         0         0         0         0         0
         0         0         0         0         0         0         0         0
         0         0         0         0         0         0         0         0
         0         0         0         0         0         0         0         0
         0         0         0         0         0         0         0         0
         0         0         0         0         0         0         0         0
         0         0         0         0         0         0         0         0
         0         0         0         0         0         0         0         0
         0         0         0         0         0         0         0         0
         0         0         0         0         0         0         0         0
         0         0         0         0         0         0         0         0
         0         0         0         0         0         0         0         0
         0         0         0         0         0         0         0         0
         0         0         0         0         0         0         0         0
         0         0         0         0         0         0         0         0
         0         0         0         0         0         0         0         0
         0         0         0         0         0         0         0         0
         0         0         0         0         0         0         0         0
         0         0         0         0         0         0         0         0
         0         0         0         0         0         0         0         0
         0         0         0         0         0         0         0         0
         0         0         0         0         0         0         0         0
         0         0         0         0         0         0         0         0
         0         0         0         0         0         0         0         0
         0         0         0         0         0         0         0         0
         0         0         0         0         0         0         0         0
         0         0         0         0         0         0         0         0
         0         0         0         0         0         0         0         0
         0         0         0         0         0         0         0         0
         0         0         0         0         0         0         0         0
         0         0         0         0         0         0         0         0
         0         0         0         0         0         0         0         0
         0         0         0         0         0         0         0         0
         0         0         0         0         0         0         0         0
         0         0         0         0         0         0         0         0
         0         0         0         0         0         0         0         0
         0         0         0         0         0         0         0         0
         0         0         0         0         0         0         0         0
         0         0         0         0         0         0         0         0
         0         0         0         0         0         0         0         0
         0         0         0         0         0         0         0         0
         0         0         0         0         0         0         0         0
         0         0         0         0         0         0         0         0
         0         0         0         0         0         0         0         0
         0         0         0         0         0         0         0         0
         0         0         0         0         0         0         0         0
         0         0         0         0         0         0         0         0
         0         0         0         0         0         0         0         0
         0         0         0         0         0         0         0         0
         0         0         0         0         0         0         0         0
         0         0         0         0         0         0         0         0
         0         0         0         0         0         0         0         0
         0         0         0         0         0         0         0         0
         0         0         0         0         0         0         0         0
         0         0         0         0         0         0         0         0
         0         0         0         0         0         0         0         0
         0         0         0         0         0         0         0         0
         0         0         0         0         0         0         0         0
         0         0         0         0         0         0         0         0
         0         0         0         0         0         0         0         0
         0         0         0         0         0         0         0         0
         0         0         0         0         0         0         0         0
         0         0         0         0         0         0         0         0
         0         0         0         0         0         0         0         0
         0         0         0         0         0         0         0         0
         0         0         0         0         0         0         0         0
         0         0         0         0         0         0         0         0
         0         0         0         0         0         0         0         0
         0         0         0         0         0         0         0         0
         0         0         0         0         0         0         0         0
         0         0         0         0         0         0         0         0
         0         0         0         0         0         0         0         0
         0         0         0         0         0         0         0         0
         0         0         0         0         0         0         0         0
         0         0         0         0         0         0         0         0
         0         0         0         0         0         0         0         0
         0         0         0         0         0         0         0         0
         0         0         0         0         0         0         0         0
         0         0         0         0         0         0         0         0
         0         0         0         0         0         0         0         0
         0         0         0         0         0         0         0         0
         0         0         0         0         0         0         0         0
         0         0         0         0         0         0         0         0
         0         0         0         0         0         0         0         0
         0         0         0         0         0         0         0         0
         0         0         0         0         0         0         0         0
         0         0         0         0         0         0         0         0
         0         0         0         0         0         0         0         0
         0         0         0         0         0         0         0         0
         0         0         0         0         0         0         0         0
         0         0         0         0         0         0         0         0
         0         0         0         0         0         0         0         0
         0         0         0         0         0         0         0         0
         0         0         0         0         0         0         0         0
         0         0         0         0         0         0         0         0
         0         0         0         0         0         0         0         0
         0         0         0         0         0         0         0         0
         0         0         0         0         0         0         0         0
         0         0         0         0         0         0         0         0
         0         0         0         0         0         0         0         0
         0         0         0         0         0         0         0         0
         0         0         0         0         0         0         0         0
         0         0         0         0         0         0         0         0
         0         0         0         0         0         0         0         0
         0         0         0         0         0         0         0         0
         0         0         0         0         0         0         0         0
         0         0         0         0         0         0         0         0
         0         0         0         0         0         0         0         0
         0         0         0         0         0         0         0         0
         0         0         0         0         0         0         0         0
         0         0         0         0         0         0         0         0
         0         0         0         0         0         0         0         0
         0         0         0         0         0         0         0         0
         0         0         0         0         0         0         0         0
         0         0         0         0         0         0         0         0
         0         0         0         0         0         0         0         0
         0         0         0         0         0         0         0         0
         0         0         0         0         0         0         0         0
         0         0         0         0         0         0         0         0
         0         0         0         0         0         0         0         0
         0         0         0         0         0         0         0         0
         0         0         0         0         0         0         0         0
         0         0         0         0         0         0         0         0
         0         0         0         0         0         0         0         0
         0         0         0         0         0         0         0         0
         0         0         0         0         0         0         0         0
         0         0         0         0         0         0         0         0
         0         0         0         0         0         0         0         0
         0         0         0         0         0         0         0         0
         0         0         0         0         0         0         0         0
         0         0         0         0         0         0         0         0
         0         0         0         0         0         0         0         0
         0         0         0         0         0         0         0         0
         0         0         0         0         0         0         0         0
         0         0         0         0         0         0         0         0
         0         0         0         0         0         0         0         0
         0         0         0         0         0         0         0         0
         0         0         0         0         0         0         0         0
         0         0         0         0         0         0         0         0
         0         0         0         0         0         0         0         0
         0         0         0         0         0         0         0         0
         0         0         0         0         0         0         0         0
         0         0         0         0         0         0         0         0
         0         0         0         0         0         0         0         0
         0         0         0         0         0         0         0         0
         0         0         0         0         0         0         0         0
         0         0         0         0         0         0         0         0
         0         0         0         0         0         0         0         0
         0         0         0         0         0         0         0         0
         0         0         0         0         0         0         0         0
         0         0         0         0         0         0         0         0
         0         0         0         0         0         0         0         0
         0         0         0         0         0         0         0         0
         0         0         0         0         0         0         0         0
         0         0         0         0         0         0         0         0
         0         0         0         0         0         0         0         0
         0         0         0         0         0         0         0         0
         0         0         0         0         0         0         0         0
         0         0         0         0         0         0         0         0
         0         0         0         0         0         0         0         0
         0         0         0         0         0         0         0         0
         0         0         0         0         0         0         0         0
         0         0         0         0         0         0         0         0
         0         0         0         0         0         0         0         0
         0         0         0         0         0         0         0         0
         0         0         0         0         0         0         0         0
         0         0         0         0         0         0         0         0
         0         0         0         0         0         0         0         0
         0         0         0         0         0         0         0         0
         0         0         0         0         0         0         0         0
         0         0         0         0         0         0         0         0
         0         0         0         0         0         0         0         0
         0         0         0         0         0         0         0         0
         0         0         0         0         0         0         0         0
         0         0         0         0         0         0         0         0
         0         0         0         0         0         0         0         0
         0         0         0         0         0         0         0         0
         0         0         0         0         0         0         0         0
         0         0         0         0         0         0         0         0
         0         0         0         0         0         0         0         0
         0         0         0         0         0         0         0         0
         0         0         0         0         0         0         0         0
         0         0         0         0         0         0         0         0
         0         0         0         0         0         0         0         0
         0         0         0         0         0         0         0         0
         0         0         0         0         0         0         0         0
         0         0         0         0         0         0         0         0
         0         0         0         0         0         0         0         0
         0         0         0         0         0         0         0         0
         0         0         0         0         0         0         0         0
         0         0         0         0         0         0         0         0
         0         0         0         0         0         0         0         0
         0         0         0         0         0         0         0         0
         0         0         0         0         0         0         0         0
         0         0         0         0         0         0         0         0
         0         0         0         0         0         0         0         0
         0         0         0         0         0         0         0         0
         0         0         0         0         0         0         0         0
         0         0         0         0         0         0         0         0
         0         0         0         0         0         0         0         0
         0         0         0         0         0         0         0         0
         0         0         0         0         0         0         0         0
         0         0         0         0         0         0         0         0
         0         0         0         0         0         0         0         0
         0         0         0         0         0         0         0         0
         0         0         0         0         0         0         0         0
         0         0         0         0         0         0         0         0
         0         0         0         0         0         0         0         0
         0         0         0         0         0         0         0         0
         0         0         0         0         0         0         0         0
         0         0         0         0         0         0         0         0
         0         0         0         0         0         0         0         0
         0         0         0         0         0         0         0         0
         0         0         0         0         0         0         0         0
         0         0         0         0         0         0         0         0
         0         0         0         0         0         0         0         0
         0         0         0         0         0         0         0         0
         0         0         0         0         0         0         0         0
         0         0         0         0         0         0         0         0
         0         0         0         0         0         0         0         0
         0         0         0         0         0         0         0         0
         0         0         0         0         0         0         0         0
         0         0         0         0         0         0         0         0
         0         0         0         0         0         0         0         0
         0         0         0         0         0         0         0         0
         0         0         0         0         0         0         0         0
         0         0         0         0         0         0         0         0
         0         0         0         0         0         0         0         0
         0         0         0         0         0         0         0         0
         0         0         0         0         0         0         0         0
         0         0         0         0         0         0         0         0
         0         0         0         0         0         0         0         0
         0         0         0         0         0         0         0         0
         0         0         0         0         0         0         0         0
         0         0         0         0         0         0         0         0
         0         0         0         0         0         0         0         0
         0         0         0         0         0         0         0         0
         0         0         0         0         0         0         0         0
         0         0         0         0         0         0         0         0
         0         0         0         0         0         0         0         0
         0         0         0         0         0         0         0         0
         0         0         0         0         0         0         0         0
         0         0         0         0         0         0         0         0
         0         0         0         0         0         0         0         0
         0         0         0         0         0         0         0         0
         0         0         0         0         0         0         0         0
         0         0         0         0         0         0         0         0
         0         0         0         0         0         0         0         0
         0         0         0         0         0         0         0         0
         0         0         0         0         0         0         0         0
         0         0         0         0         0         0         0         0
         0         0         0         0         0         0         0         0
         0         0         0         0         0         0         0         0
         0         0         0         0         0         0         0         0
         0         0         0         0         0         0         0         0
         0         0         0         0         0         0         0         0
         0         0         0         0         0         0         0         0
         0         0         0         0         0         0         0         0
         0         0         0         0         0         0         0         0
         0         0         0         0         0         0         0         0
         0         0         0         0         0         0         0         0
         0         0         0         0         0         0         0         0
         0         0         0         0         0         0         0         0
         0         0         0         0         0         0         0         0
         0         0         0         0         0         0         0         0
         0         0         0         0         0         0         0         0
         0         0         0         0         0         0         0         0
         0         0         0         0         0         0         0         0
         0         0         0         0         0         0         0         0
         0         0         0         0         0         0         0         0
         0         0         0         0         0         0         0         0
         0         0         0         0         0         0         0         0
         0         0         0         0         0         0         0         0
         0         0         0         0         0         0         0         0
         0         0         0         0         0         0         0         0
         0         0         0         0         0         0         0         0
         0         0         0         0         0         0         0         0
         0         0         0         0         0         0         0         0
         0         0         0         0         0         0         0         0
         0         0         0         0         0         0         0         0
         0         0         0         0         0         0         0         0
         0         0         0         0         0         0         0         0
         0         0         0         0         0         0         0         0
         0         0         0         0         0         0         0         0
         0         0         0         0         0         0         0         0
         0         0         0         0         0         0         0         0
         0         0         0         0         0         0         0         0
         0         0         0         0         0         0         0         0
         0         0         0         0         0         0         0         0
         0         0         0         0         0         0         0         0
         0         0         0         0         0         0         0         0
         0         0         0         0         0         0         0         0
         0         0         0         0         0         0         0         0
         0         0         0         0         0         0         0         0
         0         0         0         0         0         0         0         0
         0         0         0         0         0         0         0         0
         0         0         0         0         0         0         0         0
         0         0         0         0         0         0         0         0
         0         0         0         0         0         0         0         0
         0         0         0         0         0         0         0         0
         0         0         0         0         0         0         0         0
         0         0         0         0         0         0         0         0
         0         0         0         0         0         0         0         0
         0         0         0         0         0         0         0         0
         0         0         0         0         0         0         0         0
         0         0         0         0         0         0         0         0
         0         0         0         0         0         0         0         0
         0         0         0         0         0         0         0         0
         0         0         0         0         0         0         0         0
         0         0         0         0         0         0         0         0
         0         0         0         0         0         0         0         0
         0         0         0         0         0         0         0         0
         0         0         0         0         0         0         0         0
         0         0         0         0         0         0         0         0
         0         0         0         0         0         0         0         0
         0         0         0         0         0         0         0         0
         0         0         0         0         0         0         0         0
         0         0         0         0         0         0         0         0
         0         0         0         0         0         0         0         0
         0         0         0         0         0         0         0         0
         0         0         0         0         0         0         0         0
         0         0         0         0         0         0         0         0
         0         0         0         0         0         0         0         0
         0         0         0         0         0         0         0         0
         0         0         0         0         0         0         0         0
         0         0         0         0         0         0         0         0
         0         0         0         0         0         0         0         0
         0         0         0         0         0         0         0         0
         0         0         0         0         0         0         0         0
         0         0         0         0         0         0         0         0
         0         0         0         0         0         0         0         0
         0         0         0         0         0         0         0         0
         0         0         0         0         0         0         0         0
         0         0         0         0         0         0         0         0
         0         0         0         0         0         0         0         0
         0         0         0         0         0         0         0         0
         0         0         0         0         0         0         0         0
         0         0         0         0         0         0         0         0
         0         0         0         0         0         0         0         0
         0         0         0         0         0         0         0         0
         0         0         0         0         0         0         0         0
         0         0         0         0         0         0         0         0
         0         0         0         0         0         0         0         0
         0         0         0         0         0         0         0         0
         0         0         0         0         0         0         0         0
         0         0         0         0         0         0         0         0
         0         0         0         0         0         0         0         0
         0         0         0         0         0         0         0         0
         0         0         0         0         0         0         0         0
         0         0         0         0         0         0         0         0
         0         0         0         0         0         0         0         0
         0         0         0         0         0         0         0         0
         0         0         0         0         0         0         0         0
         0         0         0         0         0         0         0         0
         0         0         0         0         0         0         0         0
         0         0         0         0         0         0         0         0
         0         0         0         0         0         0         0         0
         0         0         0         0         0         0         0         0
         0         0         0         0         0         0         0         0
         0         0         0         0         0         0         0         0
         0         0         0         0         0         0         0         0
         0         0         0         0         0         0         0         0
         0         0         0         0         0         0         0         0
         0         0         0         0         0         0         0         0
         0         0         0         0         0         0         0         0
         0         0         0         0         0         0         0         0
         0         0         0         0         0         0         0         0
         0         0         0         0         0         0         0         0
         0         0         0         0         0         0         0         0
         0         0         0         0         0         0         0         0
         0         0         0         0         0         0         0         0
         0         0         0         0         0         0         0         0
         0         0         0         0         0         0         0         0
         0         0         0         0         0         0         0         0
         0         0         0         0         0         0         0         0
         0         0         0         0         0         0         0         0
         0         0         0         0         0         0         0         0
         0         0         0         0         0         0         0         0
         0         0         0         0         0         0         0         0
         0         0         0         0         0         0         0         0
         0         0         0         0         0         0         0         0
         0         0         0         0         0         0         0         0
         0         0         0         0         0         0         0         0
         0         0         0         0         0         0         0         0
         0         0         0         0         0         0         0         0
         0         0         0         0         0         0         0         0
         0         0         0         0         0         0         0         0
         0         0         0         0         0         0         0         0
         0         0         0         0         0         0         0         0
         0         0         0         0         0         0         0         0
         0         0         0         0         0         0         0         0
         0         0         0         0         0         0         0         0
         0         0         0         0         0         0         0         0
         0         0         0         0         0         0         0         0
         0         0         0         0         0         0         0         0
         0         0         0         0         0         0         0         0
         0         0         0         0         0         0         0         0
         0         0         0         0         0         0         0         0
         0         0         0         0         0         0         0         0
         0         0         0         0         0         0         0         0
         0         0         0         0         0         0         0         0
         0         0         0         0         0         0         0         0
         0         0         0         0         0         0         0         0
         0         0         0         0         0         0         0         0
         0         0         0         0         0         0         0         0
         0         0         0         0         0         0         0         0
         0         0         0         0         0         0         0         0
         0         0         0         0         0         0         0         0
         0         0         0         0         0         0         0         0
         0         0         0         0         0         0         0         0
         0         0         0         0         0         0         0         0
         0         0         0         0         0         0         0         0
         0         0         0         0         0         0         0         0
         0         0         0         0         0         0         0         0
         0         0         0         0         0         0         0         0
         0         0         0         0         0         0         0         0
         0         0         0         0         0         0         0         0
         0         0         0         0         0         0         0         0
         0         0         0         0         0         0         0         0
         0         0         0         0         0         0         0         0
         0         0         0         0         0         0         0         0
         0         0         0         0         0         0         0         0
         0         0         0         0         0         0         0         0
         0         0         0         0         0         0         0         0
         0         0         0         0         0         0         0         0
         0         0         0         0         0         0         0         0
         0         0         0         0         0         0         0         0
         0         0         0         0         0         0         0         0
         0         0         0         0         0         0         0         0
         0         0         0         0         0         0         0         0
         0         0         0         0         0         0         0         0
         0         0         0         0         0         0         0         0
         0         0         0         0         0         0         0         0
         0         0         0         0         0         0         0         0
         0         0         0         0         0         0         0         0
         0         0         0         0         0         0         0         0
         0         0         0         0         0         0         0         0
         0         0         0         0         0         0         0         0
         0         0         0         0         0         0         0         0
         0         0         0         0         0         0         0         0
         0         0         0         0         0         0         0         0
         0         0         0         0         0         0         0         0
         0         0         0         0         0         0         0         0
         0         0         0         0         0         0         0         0
         0         0         0         0         0         0         0         0
         0         0         0         0         0         0         0         0
         0         0         0         0         0         0         0         0
         0         0         0         0         0         0         0         0
         0         0         0         0         0         0         0         0
         0         0         0         0         0         0         0         0
         0         0         0         0         0         0         0         0
         0         0         0         0         0         0         0         0
         0         0         0         0         0         0         0         0
         0         0         0         0         0         0         0         0
         0         0         0         0         0         0         0         0
         0         0         0         0         0         0         0         0
         0         0         0         0         0         0         0         0
         0         0         0         0         0         0         0         0
         0         0         0         0         0         0         0         0
         0         0         0         0         0         0         0         0
         0         0         0         0         0         0         0         0
         0         0         0         0         0         0         0         0
         0         0         0         0         0         0         0         0
         0         0         0         0         0         0         0         0
         0         0         0         0         0         0         0         0
         0         0         0         0         0         0         0         0
         0         0         0         0         0         0         0         0
         0         0         0         0         0         0         0         0
         0         0         0         0         0         0         0         0
         0         0         0         0         0         0         0         0
         0         0         0         0         0         0         0         0
         0         0         0         0         0         0         0         0
         0         0         0         0         0         0         0         0
         0         0         0         0         0         0         0         0
         0         0         0         0         0         0         0         0
         0         0         0         0         0         0         0         0
         0         0         0         0         0         0         0         0
         0         0         0         0         0         0         0         0
         0         0         0         0         0         0         0         0
         0         0         0         0         0         0         0         0
         0         0         0         0         0         0         0         0
         0         0         0         0         0         0         0         0
         0         0

         0         0 !NGRP NST2


         0         0 !NUMLP NUMLPH

         0 !NCRTERM: cross-terms

